n -t * -s 0  -x 0 -y 0 -Z 0 -z 20  -v circle -c black
n -t * -s 1  -x 0 -y 0 -Z 0 -z 20  -v circle -c black
n -t * -s 2  -x 0 -y 0 -Z 0 -z 20  -v circle -c black
n -t * -s 3  -x 0 -y 0 -Z 0 -z 20  -v circle -c black
V -t * -v 1.0a5 -a 0
W -t * -x 500 -y 500
A -t * -n 1 -p 0 -o 0x7fffffff -c 30 -a 1
A -t * -h 1 -m 1073741823 -s 0
n -t 0.000000 -s 0 -x 42.287799 -y 496.648137 -U 16.593102 -V -3.053688 -T 27.499396
n -t 0.000000 -s 1 -x 220.595924 -y 179.745622 -U -0.051689 -V 0.075759 -T 2858.701028
n -t 0.000000 -s 2 -x 193.967981 -y 48.183752 -U 2.692167 -V 7.364362 -T 55.914613
n -t 0.000000 -s 3 -x 329.664048 -y 413.331367 -U 3.482932 -V -12.072530 -T 32.880569
+ -t 2.556838879 -s 1 -d -1 -p cbr -e 512 -c 2 -a 0 -i 0 -k AGT 
- -t 2.556838879 -s 1 -d -1 -p cbr -e 512 -c 2 -a 0 -i 0 -k AGT
h -t 2.556838879 -s 1 -d -1 -p cbr -e 512 -c 2 -a 0 -i 0 -k AGT
+ -t 2.556838879 -s 1 -d -1 -p AODV -e 48 -c 2 -a 0 -i 0 -k RTR 
- -t 2.556838879 -s 1 -d -1 -p AODV -e 48 -c 2 -a 0 -i 0 -k RTR
h -t 2.556838879 -s 1 -d -1 -p AODV -e 48 -c 2 -a 0 -i 0 -k RTR
+ -t 2.557453879 -s 1 -d -1 -p AODV -e 106 -c 2 -a 0 -i 0 -k MAC 
- -t 2.557453879 -s 1 -d -1 -p AODV -e 106 -c 2 -a 0 -i 0 -k MAC
h -t 2.557453879 -s 1 -d -1 -p AODV -e 106 -c 2 -a 0 -i 0 -k MAC
r -t 2.558302261 -s 2 -d -1 -p AODV -e 48 -c 2 -a 0 -i 0 -k MAC
r -t 2.558302660 -s 3 -d -1 -p AODV -e 48 -c 2 -a 0 -i 0 -k MAC
r -t 2.558327261 -s 2 -d -1 -p AODV -e 48 -c 2 -a 0 -i 0 -k RTR
+ -t 2.558327261 -s 2 -d -1 -p AODV -e 44 -c 2 -a 0 -i 0 -k RTR 
- -t 2.558327261 -s 2 -d -1 -p AODV -e 44 -c 2 -a 0 -i 0 -k RTR
h -t 2.558327261 -s 2 -d -1 -p AODV -e 44 -c 2 -a 0 -i 0 -k RTR
r -t 2.558327660 -s 3 -d -1 -p AODV -e 48 -c 2 -a 0 -i 0 -k RTR
+ -t 2.558622261 -s 2 -d -1 -p ARP -e 86 -c 2 -a 0 -i 0 -k MAC 
- -t 2.558622261 -s 2 -d -1 -p ARP -e 86 -c 2 -a 0 -i 0 -k MAC
h -t 2.558622261 -s 2 -d -1 -p ARP -e 86 -c 2 -a 0 -i 0 -k MAC
r -t 2.559310643 -s 1 -d -1 -p ARP -e 28 -c 2 -a 0 -i 0 -k MAC
+ -t 2.559465743 -s 3 -d -1 -p AODV -e 48 -c 2 -a 0 -i 0 -k RTR 
- -t 2.559465743 -s 3 -d -1 -p AODV -e 48 -c 2 -a 0 -i 0 -k RTR
h -t 2.559465743 -s 3 -d -1 -p AODV -e 48 -c 2 -a 0 -i 0 -k RTR
+ -t 2.560205408 -s 3 -d -1 -p AODV -e 106 -c 2 -a 0 -i 0 -k MAC 
- -t 2.560205408 -s 3 -d -1 -p AODV -e 106 -c 2 -a 0 -i 0 -k MAC
h -t 2.560205408 -s 3 -d -1 -p AODV -e 106 -c 2 -a 0 -i 0 -k MAC
r -t 2.561054189 -s 1 -d -1 -p AODV -e 48 -c 2 -a 0 -i 0 -k MAC
r -t 2.561079189 -s 1 -d -1 -p AODV -e 48 -c 2 -a 0 -i 0 -k RTR
+ -t 2.567843097 -s 3 -d -1 -p AODV -e 44 -c 2 -a 0 -i 0 -k RTR 
- -t 2.567843097 -s 3 -d -1 -p AODV -e 44 -c 2 -a 0 -i 0 -k RTR
h -t 2.567843097 -s 3 -d -1 -p AODV -e 44 -c 2 -a 0 -i 0 -k RTR
+ -t 2.568118097 -s 3 -d -1 -p AODV -e 102 -c 2 -a 0 -i 0 -k MAC 
- -t 2.568118097 -s 3 -d -1 -p AODV -e 102 -c 2 -a 0 -i 0 -k MAC
h -t 2.568118097 -s 3 -d -1 -p AODV -e 102 -c 2 -a 0 -i 0 -k MAC
r -t 2.568934879 -s 1 -d -1 -p AODV -e 44 -c 2 -a 0 -i 0 -k MAC
r -t 2.568959879 -s 1 -d -1 -p AODV -e 44 -c 2 -a 0 -i 0 -k RTR
+ -t 2.888911582 -s 1 -d -1 -p cbr -e 512 -c 2 -a 0 -i 1 -k AGT 
- -t 2.888911582 -s 1 -d -1 -p cbr -e 512 -c 2 -a 0 -i 1 -k AGT
h -t 2.888911582 -s 1 -d -1 -p cbr -e 512 -c 2 -a 0 -i 1 -k AGT
+ -t 3.354340152 -s 1 -d -1 -p AODV -e 44 -c 2 -a 0 -i 0 -k RTR 
- -t 3.354340152 -s 1 -d -1 -p AODV -e 44 -c 2 -a 0 -i 0 -k RTR
h -t 3.354340152 -s 1 -d -1 -p AODV -e 44 -c 2 -a 0 -i 0 -k RTR
+ -t 3.354995152 -s 1 -d -1 -p AODV -e 102 -c 2 -a 0 -i 0 -k MAC 
- -t 3.354995152 -s 1 -d -1 -p AODV -e 102 -c 2 -a 0 -i 0 -k MAC
h -t 3.354995152 -s 1 -d -1 -p AODV -e 102 -c 2 -a 0 -i 0 -k MAC
r -t 3.355811514 -s 2 -d -1 -p AODV -e 44 -c 2 -a 0 -i 0 -k MAC
r -t 3.355811911 -s 3 -d -1 -p AODV -e 44 -c 2 -a 0 -i 0 -k MAC
r -t 3.355836514 -s 2 -d -1 -p AODV -e 44 -c 2 -a 0 -i 0 -k RTR
r -t 3.355836911 -s 3 -d -1 -p AODV -e 44 -c 2 -a 0 -i 0 -k RTR
+ -t 3.371969550 -s 1 -d -1 -p cbr -e 512 -c 2 -a 0 -i 2 -k AGT 
- -t 3.371969550 -s 1 -d -1 -p cbr -e 512 -c 2 -a 0 -i 2 -k AGT
h -t 3.371969550 -s 1 -d -1 -p cbr -e 512 -c 2 -a 0 -i 2 -k AGT
+ -t 3.721357374 -s 3 -d -1 -p AODV -e 44 -c 2 -a 0 -i 0 -k RTR 
- -t 3.721357374 -s 3 -d -1 -p AODV -e 44 -c 2 -a 0 -i 0 -k RTR
h -t 3.721357374 -s 3 -d -1 -p AODV -e 44 -c 2 -a 0 -i 0 -k RTR
+ -t 3.721472374 -s 3 -d -1 -p AODV -e 102 -c 2 -a 0 -i 0 -k MAC 
- -t 3.721472374 -s 3 -d -1 -p AODV -e 102 -c 2 -a 0 -i 0 -k MAC
h -t 3.721472374 -s 3 -d -1 -p AODV -e 102 -c 2 -a 0 -i 0 -k MAC
r -t 3.722289123 -s 1 -d -1 -p AODV -e 44 -c 2 -a 0 -i 0 -k MAC
r -t 3.722314123 -s 1 -d -1 -p AODV -e 44 -c 2 -a 0 -i 0 -k RTR
+ -t 3.730549280 -s 1 -d -1 -p cbr -e 512 -c 2 -a 0 -i 3 -k AGT 
- -t 3.730549280 -s 1 -d -1 -p cbr -e 512 -c 2 -a 0 -i 3 -k AGT
h -t 3.730549280 -s 1 -d -1 -p cbr -e 512 -c 2 -a 0 -i 3 -k AGT
+ -t 4.361665226 -s 1 -d -1 -p cbr -e 512 -c 2 -a 0 -i 4 -k AGT 
- -t 4.361665226 -s 1 -d -1 -p cbr -e 512 -c 2 -a 0 -i 4 -k AGT
h -t 4.361665226 -s 1 -d -1 -p cbr -e 512 -c 2 -a 0 -i 4 -k AGT
+ -t 4.361665226 -s 1 -d -1 -p AODV -e 48 -c 2 -a 0 -i 0 -k RTR 
- -t 4.361665226 -s 1 -d -1 -p AODV -e 48 -c 2 -a 0 -i 0 -k RTR
h -t 4.361665226 -s 1 -d -1 -p AODV -e 48 -c 2 -a 0 -i 0 -k RTR
+ -t 4.361940226 -s 1 -d -1 -p AODV -e 106 -c 2 -a 0 -i 0 -k MAC 
- -t 4.361940226 -s 1 -d -1 -p AODV -e 106 -c 2 -a 0 -i 0 -k MAC
h -t 4.361940226 -s 1 -d -1 -p AODV -e 106 -c 2 -a 0 -i 0 -k MAC
r -t 4.362788562 -s 2 -d -1 -p AODV -e 48 -c 2 -a 0 -i 0 -k MAC
r -t 4.362788957 -s 3 -d -1 -p AODV -e 48 -c 2 -a 0 -i 0 -k MAC
r -t 4.362813562 -s 2 -d -1 -p AODV -e 48 -c 2 -a 0 -i 0 -k RTR
+ -t 4.362813562 -s 2 -d -1 -p AODV -e 44 -c 2 -a 0 -i 0 -k RTR 
- -t 4.362813562 -s 2 -d -1 -p AODV -e 44 -c 2 -a 0 -i 0 -k RTR
h -t 4.362813562 -s 2 -d -1 -p AODV -e 44 -c 2 -a 0 -i 0 -k RTR
r -t 4.362813957 -s 3 -d -1 -p AODV -e 48 -c 2 -a 0 -i 0 -k RTR
+ -t 4.363088562 -s 2 -d -1 -p ARP -e 86 -c 2 -a 0 -i 0 -k MAC 
- -t 4.363088562 -s 2 -d -1 -p ARP -e 86 -c 2 -a 0 -i 0 -k MAC
h -t 4.363088562 -s 2 -d -1 -p ARP -e 86 -c 2 -a 0 -i 0 -k MAC
r -t 4.363776899 -s 1 -d -1 -p ARP -e 28 -c 2 -a 0 -i 0 -k MAC
+ -t 4.371688393 -s 3 -d -1 -p AODV -e 48 -c 2 -a 0 -i 0 -k RTR 
- -t 4.371688393 -s 3 -d -1 -p AODV -e 48 -c 2 -a 0 -i 0 -k RTR
h -t 4.371688393 -s 3 -d -1 -p AODV -e 48 -c 2 -a 0 -i 0 -k RTR
+ -t 4.372343393 -s 3 -d -1 -p AODV -e 106 -c 2 -a 0 -i 0 -k MAC 
- -t 4.372343393 -s 3 -d -1 -p AODV -e 106 -c 2 -a 0 -i 0 -k MAC
h -t 4.372343393 -s 3 -d -1 -p AODV -e 106 -c 2 -a 0 -i 0 -k MAC
r -t 4.373192124 -s 1 -d -1 -p AODV -e 48 -c 2 -a 0 -i 0 -k MAC
r -t 4.373217124 -s 1 -d -1 -p AODV -e 48 -c 2 -a 0 -i 0 -k RTR
+ -t 4.450493568 -s 1 -d -1 -p AODV -e 44 -c 2 -a 0 -i 0 -k RTR 
- -t 4.450493568 -s 1 -d -1 -p AODV -e 44 -c 2 -a 0 -i 0 -k RTR
h -t 4.450493568 -s 1 -d -1 -p AODV -e 44 -c 2 -a 0 -i 0 -k RTR
+ -t 4.450493568 -s 1 -d -1 -p AODV -e 44 -c 2 -a 0 -i 0 -k RTR 
- -t 4.450493568 -s 1 -d -1 -p AODV -e 44 -c 2 -a 0 -i 0 -k RTR
h -t 4.450493568 -s 1 -d -1 -p AODV -e 44 -c 2 -a 0 -i 0 -k RTR
+ -t 4.450908568 -s 1 -d -1 -p AODV -e 102 -c 2 -a 0 -i 0 -k MAC 
- -t 4.450908568 -s 1 -d -1 -p AODV -e 102 -c 2 -a 0 -i 0 -k MAC
h -t 4.450908568 -s 1 -d -1 -p AODV -e 102 -c 2 -a 0 -i 0 -k MAC
r -t 4.451724902 -s 2 -d -1 -p AODV -e 44 -c 2 -a 0 -i 0 -k MAC
r -t 4.451725297 -s 3 -d -1 -p AODV -e 44 -c 2 -a 0 -i 0 -k MAC
r -t 4.451749902 -s 2 -d -1 -p AODV -e 44 -c 2 -a 0 -i 0 -k RTR
r -t 4.451750297 -s 3 -d -1 -p AODV -e 44 -c 2 -a 0 -i 0 -k RTR
+ -t 4.452274568 -s 1 -d -1 -p AODV -e 102 -c 2 -a 0 -i 0 -k MAC 
- -t 4.452274568 -s 1 -d -1 -p AODV -e 102 -c 2 -a 0 -i 0 -k MAC
h -t 4.452274568 -s 1 -d -1 -p AODV -e 102 -c 2 -a 0 -i 0 -k MAC
r -t 4.453090902 -s 2 -d -1 -p AODV -e 44 -c 2 -a 0 -i 0 -k MAC
r -t 4.453091297 -s 3 -d -1 -p AODV -e 44 -c 2 -a 0 -i 0 -k MAC
r -t 4.453115902 -s 2 -d -1 -p AODV -e 44 -c 2 -a 0 -i 0 -k RTR
r -t 4.453116297 -s 3 -d -1 -p AODV -e 44 -c 2 -a 0 -i 0 -k RTR
+ -t 4.591970188 -s 3 -d -1 -p AODV -e 44 -c 2 -a 0 -i 0 -k RTR 
- -t 4.591970188 -s 3 -d -1 -p AODV -e 44 -c 2 -a 0 -i 0 -k RTR
h -t 4.591970188 -s 3 -d -1 -p AODV -e 44 -c 2 -a 0 -i 0 -k RTR
+ -t 4.591970188 -s 3 -d -1 -p AODV -e 44 -c 2 -a 0 -i 0 -k RTR 
- -t 4.591970188 -s 3 -d -1 -p AODV -e 44 -c 2 -a 0 -i 0 -k RTR
h -t 4.591970188 -s 3 -d -1 -p AODV -e 44 -c 2 -a 0 -i 0 -k RTR
+ -t 4.592325188 -s 3 -d -1 -p AODV -e 102 -c 2 -a 0 -i 0 -k MAC 
- -t 4.592325188 -s 3 -d -1 -p AODV -e 102 -c 2 -a 0 -i 0 -k MAC
h -t 4.592325188 -s 3 -d -1 -p AODV -e 102 -c 2 -a 0 -i 0 -k MAC
r -t 4.593141913 -s 1 -d -1 -p AODV -e 44 -c 2 -a 0 -i 0 -k MAC
r -t 4.593166913 -s 1 -d -1 -p AODV -e 44 -c 2 -a 0 -i 0 -k RTR
+ -t 4.593671188 -s 3 -d -1 -p AODV -e 102 -c 2 -a 0 -i 0 -k MAC 
- -t 4.593671188 -s 3 -d -1 -p AODV -e 102 -c 2 -a 0 -i 0 -k MAC
h -t 4.593671188 -s 3 -d -1 -p AODV -e 102 -c 2 -a 0 -i 0 -k MAC
r -t 4.594487913 -s 1 -d -1 -p AODV -e 44 -c 2 -a 0 -i 0 -k MAC
r -t 4.594512913 -s 1 -d -1 -p AODV -e 44 -c 2 -a 0 -i 0 -k RTR
+ -t 4.666264462 -s 1 -d -1 -p cbr -e 512 -c 2 -a 0 -i 5 -k AGT 
- -t 4.666264462 -s 1 -d -1 -p cbr -e 512 -c 2 -a 0 -i 5 -k AGT
h -t 4.666264462 -s 1 -d -1 -p cbr -e 512 -c 2 -a 0 -i 5 -k AGT
+ -t 5.205897737 -s 1 -d -1 -p AODV -e 44 -c 2 -a 0 -i 0 -k RTR 
- -t 5.205897737 -s 1 -d -1 -p AODV -e 44 -c 2 -a 0 -i 0 -k RTR
h -t 5.205897737 -s 1 -d -1 -p AODV -e 44 -c 2 -a 0 -i 0 -k RTR
+ -t 5.205897737 -s 1 -d -1 -p AODV -e 44 -c 2 -a 0 -i 0 -k RTR 
- -t 5.205897737 -s 1 -d -1 -p AODV -e 44 -c 2 -a 0 -i 0 -k RTR
h -t 5.205897737 -s 1 -d -1 -p AODV -e 44 -c 2 -a 0 -i 0 -k RTR
+ -t 5.206052737 -s 1 -d -1 -p AODV -e 102 -c 2 -a 0 -i 0 -k MAC 
- -t 5.206052737 -s 1 -d -1 -p AODV -e 102 -c 2 -a 0 -i 0 -k MAC
h -t 5.206052737 -s 1 -d -1 -p AODV -e 102 -c 2 -a 0 -i 0 -k MAC
r -t 5.206869052 -s 2 -d -1 -p AODV -e 44 -c 2 -a 0 -i 0 -k MAC
r -t 5.206869447 -s 3 -d -1 -p AODV -e 44 -c 2 -a 0 -i 0 -k MAC
r -t 5.206894052 -s 2 -d -1 -p AODV -e 44 -c 2 -a 0 -i 0 -k RTR
r -t 5.206894447 -s 3 -d -1 -p AODV -e 44 -c 2 -a 0 -i 0 -k RTR
+ -t 5.207218737 -s 1 -d -1 -p AODV -e 102 -c 2 -a 0 -i 0 -k MAC 
- -t 5.207218737 -s 1 -d -1 -p AODV -e 102 -c 2 -a 0 -i 0 -k MAC
h -t 5.207218737 -s 1 -d -1 -p AODV -e 102 -c 2 -a 0 -i 0 -k MAC
r -t 5.208035052 -s 2 -d -1 -p AODV -e 44 -c 2 -a 0 -i 0 -k MAC
r -t 5.208035447 -s 3 -d -1 -p AODV -e 44 -c 2 -a 0 -i 0 -k MAC
r -t 5.208060052 -s 2 -d -1 -p AODV -e 44 -c 2 -a 0 -i 0 -k RTR
r -t 5.208060447 -s 3 -d -1 -p AODV -e 44 -c 2 -a 0 -i 0 -k RTR
+ -t 5.354592299 -s 1 -d -1 -p cbr -e 512 -c 2 -a 0 -i 6 -k AGT 
- -t 5.354592299 -s 1 -d -1 -p cbr -e 512 -c 2 -a 0 -i 6 -k AGT
h -t 5.354592299 -s 1 -d -1 -p cbr -e 512 -c 2 -a 0 -i 6 -k AGT
+ -t 5.676282135 -s 3 -d -1 -p AODV -e 44 -c 2 -a 0 -i 0 -k RTR 
- -t 5.676282135 -s 3 -d -1 -p AODV -e 44 -c 2 -a 0 -i 0 -k RTR
h -t 5.676282135 -s 3 -d -1 -p AODV -e 44 -c 2 -a 0 -i 0 -k RTR
+ -t 5.676282135 -s 3 -d -1 -p AODV -e 44 -c 2 -a 0 -i 0 -k RTR 
- -t 5.676282135 -s 3 -d -1 -p AODV -e 44 -c 2 -a 0 -i 0 -k RTR
h -t 5.676282135 -s 3 -d -1 -p AODV -e 44 -c 2 -a 0 -i 0 -k RTR
+ -t 5.676377135 -s 3 -d -1 -p AODV -e 102 -c 2 -a 0 -i 0 -k MAC 
- -t 5.676377135 -s 3 -d -1 -p AODV -e 102 -c 2 -a 0 -i 0 -k MAC
h -t 5.676377135 -s 3 -d -1 -p AODV -e 102 -c 2 -a 0 -i 0 -k MAC
r -t 5.677193832 -s 1 -d -1 -p AODV -e 44 -c 2 -a 0 -i 0 -k MAC
r -t 5.677218832 -s 1 -d -1 -p AODV -e 44 -c 2 -a 0 -i 0 -k RTR
+ -t 5.677723135 -s 3 -d -1 -p AODV -e 102 -c 2 -a 0 -i 0 -k MAC 
- -t 5.677723135 -s 3 -d -1 -p AODV -e 102 -c 2 -a 0 -i 0 -k MAC
h -t 5.677723135 -s 3 -d -1 -p AODV -e 102 -c 2 -a 0 -i 0 -k MAC
r -t 5.678539832 -s 1 -d -1 -p AODV -e 44 -c 2 -a 0 -i 0 -k MAC
r -t 5.678564832 -s 1 -d -1 -p AODV -e 44 -c 2 -a 0 -i 0 -k RTR
+ -t 5.997085850 -s 1 -d -1 -p cbr -e 512 -c 2 -a 0 -i 7 -k AGT 
- -t 5.997085850 -s 1 -d -1 -p cbr -e 512 -c 2 -a 0 -i 7 -k AGT
h -t 5.997085850 -s 1 -d -1 -p cbr -e 512 -c 2 -a 0 -i 7 -k AGT
+ -t 6.168741377 -s 1 -d -1 -p AODV -e 44 -c 2 -a 0 -i 0 -k RTR 
- -t 6.168741377 -s 1 -d -1 -p AODV -e 44 -c 2 -a 0 -i 0 -k RTR
h -t 6.168741377 -s 1 -d -1 -p AODV -e 44 -c 2 -a 0 -i 0 -k RTR
+ -t 6.168741377 -s 1 -d -1 -p AODV -e 44 -c 2 -a 0 -i 0 -k RTR 
- -t 6.168741377 -s 1 -d -1 -p AODV -e 44 -c 2 -a 0 -i 0 -k RTR
h -t 6.168741377 -s 1 -d -1 -p AODV -e 44 -c 2 -a 0 -i 0 -k RTR
+ -t 6.169276377 -s 1 -d -1 -p AODV -e 102 -c 2 -a 0 -i 0 -k MAC 
- -t 6.169276377 -s 1 -d -1 -p AODV -e 102 -c 2 -a 0 -i 0 -k MAC
h -t 6.169276377 -s 1 -d -1 -p AODV -e 102 -c 2 -a 0 -i 0 -k MAC
r -t 6.170092667 -s 2 -d -1 -p AODV -e 44 -c 2 -a 0 -i 0 -k MAC
r -t 6.170093062 -s 3 -d -1 -p AODV -e 44 -c 2 -a 0 -i 0 -k MAC
r -t 6.170117667 -s 2 -d -1 -p AODV -e 44 -c 2 -a 0 -i 0 -k RTR
r -t 6.170118062 -s 3 -d -1 -p AODV -e 44 -c 2 -a 0 -i 0 -k RTR
+ -t 6.170262377 -s 1 -d -1 -p AODV -e 102 -c 2 -a 0 -i 0 -k MAC 
- -t 6.170262377 -s 1 -d -1 -p AODV -e 102 -c 2 -a 0 -i 0 -k MAC
h -t 6.170262377 -s 1 -d -1 -p AODV -e 102 -c 2 -a 0 -i 0 -k MAC
r -t 6.171078667 -s 2 -d -1 -p AODV -e 44 -c 2 -a 0 -i 0 -k MAC
r -t 6.171079062 -s 3 -d -1 -p AODV -e 44 -c 2 -a 0 -i 0 -k MAC
r -t 6.171103667 -s 2 -d -1 -p AODV -e 44 -c 2 -a 0 -i 0 -k RTR
r -t 6.171104062 -s 3 -d -1 -p AODV -e 44 -c 2 -a 0 -i 0 -k RTR
+ -t 6.292764308 -s 1 -d -1 -p cbr -e 512 -c 2 -a 0 -i 8 -k AGT 
- -t 6.292764308 -s 1 -d -1 -p cbr -e 512 -c 2 -a 0 -i 8 -k AGT
h -t 6.292764308 -s 1 -d -1 -p cbr -e 512 -c 2 -a 0 -i 8 -k AGT
+ -t 6.812630003 -s 3 -d -1 -p AODV -e 44 -c 2 -a 0 -i 0 -k RTR 
- -t 6.812630003 -s 3 -d -1 -p AODV -e 44 -c 2 -a 0 -i 0 -k RTR
h -t 6.812630003 -s 3 -d -1 -p AODV -e 44 -c 2 -a 0 -i 0 -k RTR
+ -t 6.812630003 -s 3 -d -1 -p AODV -e 44 -c 2 -a 0 -i 0 -k RTR 
- -t 6.812630003 -s 3 -d -1 -p AODV -e 44 -c 2 -a 0 -i 0 -k RTR
h -t 6.812630003 -s 3 -d -1 -p AODV -e 44 -c 2 -a 0 -i 0 -k RTR
+ -t 6.812965003 -s 3 -d -1 -p AODV -e 102 -c 2 -a 0 -i 0 -k MAC 
- -t 6.812965003 -s 3 -d -1 -p AODV -e 102 -c 2 -a 0 -i 0 -k MAC
h -t 6.812965003 -s 3 -d -1 -p AODV -e 102 -c 2 -a 0 -i 0 -k MAC
r -t 6.813781674 -s 1 -d -1 -p AODV -e 44 -c 2 -a 0 -i 0 -k MAC
r -t 6.813781821 -s 0 -d -1 -p AODV -e 44 -c 2 -a 0 -i 0 -k MAC
r -t 6.813806674 -s 1 -d -1 -p AODV -e 44 -c 2 -a 0 -i 0 -k RTR
r -t 6.813806821 -s 0 -d -1 -p AODV -e 44 -c 2 -a 0 -i 0 -k RTR
+ -t 6.814031003 -s 3 -d -1 -p AODV -e 102 -c 2 -a 0 -i 0 -k MAC 
- -t 6.814031003 -s 3 -d -1 -p AODV -e 102 -c 2 -a 0 -i 0 -k MAC
h -t 6.814031003 -s 3 -d -1 -p AODV -e 102 -c 2 -a 0 -i 0 -k MAC
r -t 6.814847674 -s 1 -d -1 -p AODV -e 44 -c 2 -a 0 -i 0 -k MAC
r -t 6.814847821 -s 0 -d -1 -p AODV -e 44 -c 2 -a 0 -i 0 -k MAC
r -t 6.814872674 -s 1 -d -1 -p AODV -e 44 -c 2 -a 0 -i 0 -k RTR
r -t 6.814872821 -s 0 -d -1 -p AODV -e 44 -c 2 -a 0 -i 0 -k RTR
+ -t 6.910309871 -s 1 -d -1 -p cbr -e 512 -c 2 -a 0 -i 9 -k AGT 
- -t 6.910309871 -s 1 -d -1 -p cbr -e 512 -c 2 -a 0 -i 9 -k AGT
h -t 6.910309871 -s 1 -d -1 -p cbr -e 512 -c 2 -a 0 -i 9 -k AGT
+ -t 7.164602228 -s 1 -d -1 -p AODV -e 44 -c 2 -a 0 -i 0 -k RTR 
- -t 7.164602228 -s 1 -d -1 -p AODV -e 44 -c 2 -a 0 -i 0 -k RTR
h -t 7.164602228 -s 1 -d -1 -p AODV -e 44 -c 2 -a 0 -i 0 -k RTR
+ -t 7.164602228 -s 1 -d -1 -p AODV -e 44 -c 2 -a 0 -i 0 -k RTR 
- -t 7.164602228 -s 1 -d -1 -p AODV -e 44 -c 2 -a 0 -i 0 -k RTR
h -t 7.164602228 -s 1 -d -1 -p AODV -e 44 -c 2 -a 0 -i 0 -k RTR
+ -t 7.164737228 -s 1 -d -1 -p AODV -e 102 -c 2 -a 0 -i 0 -k MAC 
- -t 7.164737228 -s 1 -d -1 -p AODV -e 102 -c 2 -a 0 -i 0 -k MAC
h -t 7.164737228 -s 1 -d -1 -p AODV -e 102 -c 2 -a 0 -i 0 -k MAC
r -t 7.165553494 -s 2 -d -1 -p AODV -e 44 -c 2 -a 0 -i 0 -k MAC
r -t 7.165553891 -s 3 -d -1 -p AODV -e 44 -c 2 -a 0 -i 0 -k MAC
r -t 7.165578494 -s 2 -d -1 -p AODV -e 44 -c 2 -a 0 -i 0 -k RTR
r -t 7.165578891 -s 3 -d -1 -p AODV -e 44 -c 2 -a 0 -i 0 -k RTR
+ -t 7.166183228 -s 1 -d -1 -p AODV -e 102 -c 2 -a 0 -i 0 -k MAC 
- -t 7.166183228 -s 1 -d -1 -p AODV -e 102 -c 2 -a 0 -i 0 -k MAC
h -t 7.166183228 -s 1 -d -1 -p AODV -e 102 -c 2 -a 0 -i 0 -k MAC
r -t 7.166999494 -s 2 -d -1 -p AODV -e 44 -c 2 -a 0 -i 0 -k MAC
r -t 7.166999891 -s 3 -d -1 -p AODV -e 44 -c 2 -a 0 -i 0 -k MAC
r -t 7.167024494 -s 2 -d -1 -p AODV -e 44 -c 2 -a 0 -i 0 -k RTR
r -t 7.167024891 -s 3 -d -1 -p AODV -e 44 -c 2 -a 0 -i 0 -k RTR
+ -t 7.597633023 -s 1 -d -1 -p cbr -e 512 -c 2 -a 0 -i 10 -k AGT 
- -t 7.597633023 -s 1 -d -1 -p cbr -e 512 -c 2 -a 0 -i 10 -k AGT
h -t 7.597633023 -s 1 -d -1 -p cbr -e 512 -c 2 -a 0 -i 10 -k AGT
+ -t 7.773240029 -s 3 -d -1 -p AODV -e 44 -c 2 -a 0 -i 0 -k RTR 
- -t 7.773240029 -s 3 -d -1 -p AODV -e 44 -c 2 -a 0 -i 0 -k RTR
h -t 7.773240029 -s 3 -d -1 -p AODV -e 44 -c 2 -a 0 -i 0 -k RTR
+ -t 7.773240029 -s 3 -d -1 -p AODV -e 44 -c 2 -a 0 -i 0 -k RTR 
- -t 7.773240029 -s 3 -d -1 -p AODV -e 44 -c 2 -a 0 -i 0 -k RTR
h -t 7.773240029 -s 3 -d -1 -p AODV -e 44 -c 2 -a 0 -i 0 -k RTR
+ -t 7.773615029 -s 3 -d -1 -p AODV -e 102 -c 2 -a 0 -i 0 -k MAC 
- -t 7.773615029 -s 3 -d -1 -p AODV -e 102 -c 2 -a 0 -i 0 -k MAC
h -t 7.773615029 -s 3 -d -1 -p AODV -e 102 -c 2 -a 0 -i 0 -k MAC
r -t 7.774431679 -s 1 -d -1 -p AODV -e 44 -c 2 -a 0 -i 0 -k MAC
r -t 7.774431831 -s 0 -d -1 -p AODV -e 44 -c 2 -a 0 -i 0 -k MAC
r -t 7.774456679 -s 1 -d -1 -p AODV -e 44 -c 2 -a 0 -i 0 -k RTR
r -t 7.774456831 -s 0 -d -1 -p AODV -e 44 -c 2 -a 0 -i 0 -k RTR
+ -t 7.774781029 -s 3 -d -1 -p AODV -e 102 -c 2 -a 0 -i 0 -k MAC 
- -t 7.774781029 -s 3 -d -1 -p AODV -e 102 -c 2 -a 0 -i 0 -k MAC
h -t 7.774781029 -s 3 -d -1 -p AODV -e 102 -c 2 -a 0 -i 0 -k MAC
r -t 7.775597679 -s 1 -d -1 -p AODV -e 44 -c 2 -a 0 -i 0 -k MAC
r -t 7.775597831 -s 0 -d -1 -p AODV -e 44 -c 2 -a 0 -i 0 -k MAC
r -t 7.775622679 -s 1 -d -1 -p AODV -e 44 -c 2 -a 0 -i 0 -k RTR
r -t 7.775622831 -s 0 -d -1 -p AODV -e 44 -c 2 -a 0 -i 0 -k RTR
+ -t 8.000000000 -s 1 -d -1 -p AODV -e 48 -c 2 -a 0 -i 0 -k RTR 
- -t 8.000000000 -s 1 -d -1 -p AODV -e 48 -c 2 -a 0 -i 0 -k RTR
h -t 8.000000000 -s 1 -d -1 -p AODV -e 48 -c 2 -a 0 -i 0 -k RTR
+ -t 8.000115000 -s 1 -d -1 -p AODV -e 106 -c 2 -a 0 -i 0 -k MAC 
- -t 8.000115000 -s 1 -d -1 -p AODV -e 106 -c 2 -a 0 -i 0 -k MAC
h -t 8.000115000 -s 1 -d -1 -p AODV -e 106 -c 2 -a 0 -i 0 -k MAC
r -t 8.000963245 -s 2 -d -1 -p AODV -e 48 -c 2 -a 0 -i 0 -k MAC
r -t 8.000963645 -s 3 -d -1 -p AODV -e 48 -c 2 -a 0 -i 0 -k MAC
r -t 8.000988245 -s 2 -d -1 -p AODV -e 48 -c 2 -a 0 -i 0 -k RTR
+ -t 8.000988245 -s 2 -d -1 -p AODV -e 44 -c 2 -a 0 -i 0 -k RTR 
- -t 8.000988245 -s 2 -d -1 -p AODV -e 44 -c 2 -a 0 -i 0 -k RTR
h -t 8.000988245 -s 2 -d -1 -p AODV -e 44 -c 2 -a 0 -i 0 -k RTR
r -t 8.000988645 -s 3 -d -1 -p AODV -e 48 -c 2 -a 0 -i 0 -k RTR
+ -t 8.001223245 -s 2 -d -1 -p ARP -e 86 -c 2 -a 0 -i 0 -k MAC 
- -t 8.001223245 -s 2 -d -1 -p ARP -e 86 -c 2 -a 0 -i 0 -k MAC
h -t 8.001223245 -s 2 -d -1 -p ARP -e 86 -c 2 -a 0 -i 0 -k MAC
+ -t 8.001822944 -s 3 -d -1 -p AODV -e 48 -c 2 -a 0 -i 0 -k RTR 
- -t 8.001822944 -s 3 -d -1 -p AODV -e 48 -c 2 -a 0 -i 0 -k RTR
h -t 8.001822944 -s 3 -d -1 -p AODV -e 48 -c 2 -a 0 -i 0 -k RTR
r -t 8.001911489 -s 1 -d -1 -p ARP -e 28 -c 2 -a 0 -i 0 -k MAC
+ -t 8.002486089 -s 3 -d -1 -p AODV -e 106 -c 2 -a 0 -i 0 -k MAC 
- -t 8.002486089 -s 3 -d -1 -p AODV -e 106 -c 2 -a 0 -i 0 -k MAC
h -t 8.002486089 -s 3 -d -1 -p AODV -e 106 -c 2 -a 0 -i 0 -k MAC
r -t 8.003334734 -s 1 -d -1 -p AODV -e 48 -c 2 -a 0 -i 0 -k MAC
r -t 8.003334888 -s 0 -d -1 -p AODV -e 48 -c 2 -a 0 -i 0 -k MAC
r -t 8.003359734 -s 1 -d -1 -p AODV -e 48 -c 2 -a 0 -i 0 -k RTR
r -t 8.003359888 -s 0 -d -1 -p AODV -e 48 -c 2 -a 0 -i 0 -k RTR
+ -t 8.007012361 -s 0 -d -1 -p AODV -e 48 -c 2 -a 0 -i 0 -k RTR 
- -t 8.007012361 -s 0 -d -1 -p AODV -e 48 -c 2 -a 0 -i 0 -k RTR
h -t 8.007012361 -s 0 -d -1 -p AODV -e 48 -c 2 -a 0 -i 0 -k RTR
+ -t 8.007247361 -s 0 -d -1 -p AODV -e 106 -c 2 -a 0 -i 0 -k MAC 
- -t 8.007247361 -s 0 -d -1 -p AODV -e 106 -c 2 -a 0 -i 0 -k MAC
h -t 8.007247361 -s 0 -d -1 -p AODV -e 106 -c 2 -a 0 -i 0 -k MAC
r -t 8.008096160 -s 3 -d -1 -p AODV -e 48 -c 2 -a 0 -i 0 -k MAC
r -t 8.008121160 -s 3 -d -1 -p AODV -e 48 -c 2 -a 0 -i 0 -k RTR
+ -t 8.207658468 -s 1 -d -1 -p AODV -e 44 -c 2 -a 0 -i 0 -k RTR 
- -t 8.207658468 -s 1 -d -1 -p AODV -e 44 -c 2 -a 0 -i 0 -k RTR
h -t 8.207658468 -s 1 -d -1 -p AODV -e 44 -c 2 -a 0 -i 0 -k RTR
+ -t 8.207658468 -s 1 -d -1 -p AODV -e 44 -c 2 -a 0 -i 0 -k RTR 
- -t 8.207658468 -s 1 -d -1 -p AODV -e 44 -c 2 -a 0 -i 0 -k RTR
h -t 8.207658468 -s 1 -d -1 -p AODV -e 44 -c 2 -a 0 -i 0 -k RTR
+ -t 8.207658468 -s 1 -d -1 -p AODV -e 44 -c 2 -a 0 -i 0 -k RTR 
- -t 8.207658468 -s 1 -d -1 -p AODV -e 44 -c 2 -a 0 -i 0 -k RTR
h -t 8.207658468 -s 1 -d -1 -p AODV -e 44 -c 2 -a 0 -i 0 -k RTR
+ -t 8.207873468 -s 1 -d -1 -p AODV -e 102 -c 2 -a 0 -i 0 -k MAC 
- -t 8.207873468 -s 1 -d -1 -p AODV -e 102 -c 2 -a 0 -i 0 -k MAC
h -t 8.207873468 -s 1 -d -1 -p AODV -e 102 -c 2 -a 0 -i 0 -k MAC
r -t 8.208689708 -s 2 -d -1 -p AODV -e 44 -c 2 -a 0 -i 0 -k MAC
r -t 8.208690110 -s 3 -d -1 -p AODV -e 44 -c 2 -a 0 -i 0 -k MAC
r -t 8.208714708 -s 2 -d -1 -p AODV -e 44 -c 2 -a 0 -i 0 -k RTR
r -t 8.208715110 -s 3 -d -1 -p AODV -e 44 -c 2 -a 0 -i 0 -k RTR
+ -t 8.209099468 -s 1 -d -1 -p AODV -e 102 -c 2 -a 0 -i 0 -k MAC 
- -t 8.209099468 -s 1 -d -1 -p AODV -e 102 -c 2 -a 0 -i 0 -k MAC
h -t 8.209099468 -s 1 -d -1 -p AODV -e 102 -c 2 -a 0 -i 0 -k MAC
r -t 8.209915708 -s 2 -d -1 -p AODV -e 44 -c 2 -a 0 -i 0 -k MAC
r -t 8.209916109 -s 3 -d -1 -p AODV -e 44 -c 2 -a 0 -i 0 -k MAC
r -t 8.209940708 -s 2 -d -1 -p AODV -e 44 -c 2 -a 0 -i 0 -k RTR
r -t 8.209941109 -s 3 -d -1 -p AODV -e 44 -c 2 -a 0 -i 0 -k RTR
+ -t 8.210285468 -s 1 -d -1 -p AODV -e 102 -c 2 -a 0 -i 0 -k MAC 
- -t 8.210285468 -s 1 -d -1 -p AODV -e 102 -c 2 -a 0 -i 0 -k MAC
h -t 8.210285468 -s 1 -d -1 -p AODV -e 102 -c 2 -a 0 -i 0 -k MAC
r -t 8.211101708 -s 2 -d -1 -p AODV -e 44 -c 2 -a 0 -i 0 -k MAC
r -t 8.211102109 -s 3 -d -1 -p AODV -e 44 -c 2 -a 0 -i 0 -k MAC
r -t 8.211126708 -s 2 -d -1 -p AODV -e 44 -c 2 -a 0 -i 0 -k RTR
r -t 8.211127109 -s 3 -d -1 -p AODV -e 44 -c 2 -a 0 -i 0 -k RTR
+ -t 8.241632104 -s 0 -d -1 -p AODV -e 44 -c 2 -a 0 -i 0 -k RTR 
- -t 8.241632104 -s 0 -d -1 -p AODV -e 44 -c 2 -a 0 -i 0 -k RTR
h -t 8.241632104 -s 0 -d -1 -p AODV -e 44 -c 2 -a 0 -i 0 -k RTR
+ -t 8.242027104 -s 0 -d -1 -p AODV -e 102 -c 2 -a 0 -i 0 -k MAC 
- -t 8.242027104 -s 0 -d -1 -p AODV -e 102 -c 2 -a 0 -i 0 -k MAC
h -t 8.242027104 -s 0 -d -1 -p AODV -e 102 -c 2 -a 0 -i 0 -k MAC
r -t 8.242843900 -s 3 -d -1 -p AODV -e 44 -c 2 -a 0 -i 0 -k MAC
r -t 8.242868900 -s 3 -d -1 -p AODV -e 44 -c 2 -a 0 -i 0 -k RTR
+ -t 8.255424194 -s 1 -d -1 -p cbr -e 512 -c 2 -a 0 -i 11 -k AGT 
- -t 8.255424194 -s 1 -d -1 -p cbr -e 512 -c 2 -a 0 -i 11 -k AGT
h -t 8.255424194 -s 1 -d -1 -p cbr -e 512 -c 2 -a 0 -i 11 -k AGT
+ -t 8.900238379 -s 1 -d -1 -p cbr -e 512 -c 2 -a 0 -i 12 -k AGT 
- -t 8.900238379 -s 1 -d -1 -p cbr -e 512 -c 2 -a 0 -i 12 -k AGT
h -t 8.900238379 -s 1 -d -1 -p cbr -e 512 -c 2 -a 0 -i 12 -k AGT
+ -t 8.915127552 -s 3 -d -1 -p AODV -e 44 -c 2 -a 0 -i 0 -k RTR 
- -t 8.915127552 -s 3 -d -1 -p AODV -e 44 -c 2 -a 0 -i 0 -k RTR
h -t 8.915127552 -s 3 -d -1 -p AODV -e 44 -c 2 -a 0 -i 0 -k RTR
+ -t 8.915127552 -s 3 -d -1 -p AODV -e 44 -c 2 -a 0 -i 0 -k RTR 
- -t 8.915127552 -s 3 -d -1 -p AODV -e 44 -c 2 -a 0 -i 0 -k RTR
h -t 8.915127552 -s 3 -d -1 -p AODV -e 44 -c 2 -a 0 -i 0 -k RTR
+ -t 8.915127552 -s 3 -d -1 -p AODV -e 44 -c 2 -a 0 -i 0 -k RTR 
- -t 8.915127552 -s 3 -d -1 -p AODV -e 44 -c 2 -a 0 -i 0 -k RTR
h -t 8.915127552 -s 3 -d -1 -p AODV -e 44 -c 2 -a 0 -i 0 -k RTR
+ -t 8.915202552 -s 3 -d -1 -p AODV -e 102 -c 2 -a 0 -i 0 -k MAC 
- -t 8.915202552 -s 3 -d -1 -p AODV -e 102 -c 2 -a 0 -i 0 -k MAC
h -t 8.915202552 -s 3 -d -1 -p AODV -e 102 -c 2 -a 0 -i 0 -k MAC
r -t 8.916019180 -s 1 -d -1 -p AODV -e 44 -c 2 -a 0 -i 0 -k MAC
r -t 8.916019340 -s 0 -d -1 -p AODV -e 44 -c 2 -a 0 -i 0 -k MAC
r -t 8.916019349 -s 2 -d -1 -p AODV -e 44 -c 2 -a 0 -i 0 -k MAC
r -t 8.916044180 -s 1 -d -1 -p AODV -e 44 -c 2 -a 0 -i 0 -k RTR
r -t 8.916044340 -s 0 -d -1 -p AODV -e 44 -c 2 -a 0 -i 0 -k RTR
r -t 8.916044349 -s 2 -d -1 -p AODV -e 44 -c 2 -a 0 -i 0 -k RTR
+ -t 8.916128552 -s 3 -d -1 -p AODV -e 102 -c 2 -a 0 -i 0 -k MAC 
- -t 8.916128552 -s 3 -d -1 -p AODV -e 102 -c 2 -a 0 -i 0 -k MAC
h -t 8.916128552 -s 3 -d -1 -p AODV -e 102 -c 2 -a 0 -i 0 -k MAC
r -t 8.916945180 -s 1 -d -1 -p AODV -e 44 -c 2 -a 0 -i 0 -k MAC
r -t 8.916945340 -s 0 -d -1 -p AODV -e 44 -c 2 -a 0 -i 0 -k MAC
r -t 8.916945349 -s 2 -d -1 -p AODV -e 44 -c 2 -a 0 -i 0 -k MAC
r -t 8.916970180 -s 1 -d -1 -p AODV -e 44 -c 2 -a 0 -i 0 -k RTR
r -t 8.916970340 -s 0 -d -1 -p AODV -e 44 -c 2 -a 0 -i 0 -k RTR
r -t 8.916970349 -s 2 -d -1 -p AODV -e 44 -c 2 -a 0 -i 0 -k RTR
+ -t 8.917514552 -s 3 -d -1 -p AODV -e 102 -c 2 -a 0 -i 0 -k MAC 
- -t 8.917514552 -s 3 -d -1 -p AODV -e 102 -c 2 -a 0 -i 0 -k MAC
h -t 8.917514552 -s 3 -d -1 -p AODV -e 102 -c 2 -a 0 -i 0 -k MAC
r -t 8.918331180 -s 1 -d -1 -p AODV -e 44 -c 2 -a 0 -i 0 -k MAC
r -t 8.918331340 -s 0 -d -1 -p AODV -e 44 -c 2 -a 0 -i 0 -k MAC
r -t 8.918331349 -s 2 -d -1 -p AODV -e 44 -c 2 -a 0 -i 0 -k MAC
r -t 8.918356180 -s 1 -d -1 -p AODV -e 44 -c 2 -a 0 -i 0 -k RTR
r -t 8.918356340 -s 0 -d -1 -p AODV -e 44 -c 2 -a 0 -i 0 -k RTR
r -t 8.918356349 -s 2 -d -1 -p AODV -e 44 -c 2 -a 0 -i 0 -k RTR
+ -t 9.007602818 -s 0 -d -1 -p AODV -e 44 -c 2 -a 0 -i 0 -k RTR 
- -t 9.007602818 -s 0 -d -1 -p AODV -e 44 -c 2 -a 0 -i 0 -k RTR
h -t 9.007602818 -s 0 -d -1 -p AODV -e 44 -c 2 -a 0 -i 0 -k RTR
+ -t 9.007697818 -s 0 -d -1 -p AODV -e 102 -c 2 -a 0 -i 0 -k MAC 
- -t 9.007697818 -s 0 -d -1 -p AODV -e 102 -c 2 -a 0 -i 0 -k MAC
h -t 9.007697818 -s 0 -d -1 -p AODV -e 102 -c 2 -a 0 -i 0 -k MAC
r -t 9.008514605 -s 3 -d -1 -p AODV -e 44 -c 2 -a 0 -i 0 -k MAC
r -t 9.008539605 -s 3 -d -1 -p AODV -e 44 -c 2 -a 0 -i 0 -k RTR
+ -t 9.118525875 -s 1 -d -1 -p AODV -e 44 -c 2 -a 0 -i 0 -k RTR 
- -t 9.118525875 -s 1 -d -1 -p AODV -e 44 -c 2 -a 0 -i 0 -k RTR
h -t 9.118525875 -s 1 -d -1 -p AODV -e 44 -c 2 -a 0 -i 0 -k RTR
+ -t 9.118525875 -s 1 -d -1 -p AODV -e 44 -c 2 -a 0 -i 0 -k RTR 
- -t 9.118525875 -s 1 -d -1 -p AODV -e 44 -c 2 -a 0 -i 0 -k RTR
h -t 9.118525875 -s 1 -d -1 -p AODV -e 44 -c 2 -a 0 -i 0 -k RTR
+ -t 9.118525875 -s 1 -d -1 -p AODV -e 44 -c 2 -a 0 -i 0 -k RTR 
- -t 9.118525875 -s 1 -d -1 -p AODV -e 44 -c 2 -a 0 -i 0 -k RTR
h -t 9.118525875 -s 1 -d -1 -p AODV -e 44 -c 2 -a 0 -i 0 -k RTR
+ -t 9.118620875 -s 1 -d -1 -p AODV -e 102 -c 2 -a 0 -i 0 -k MAC 
- -t 9.118620875 -s 1 -d -1 -p AODV -e 102 -c 2 -a 0 -i 0 -k MAC
h -t 9.118620875 -s 1 -d -1 -p AODV -e 102 -c 2 -a 0 -i 0 -k MAC
r -t 9.119437092 -s 2 -d -1 -p AODV -e 44 -c 2 -a 0 -i 0 -k MAC
r -t 9.119437499 -s 3 -d -1 -p AODV -e 44 -c 2 -a 0 -i 0 -k MAC
r -t 9.119462092 -s 2 -d -1 -p AODV -e 44 -c 2 -a 0 -i 0 -k RTR
r -t 9.119462499 -s 3 -d -1 -p AODV -e 44 -c 2 -a 0 -i 0 -k RTR
+ -t 9.119506875 -s 1 -d -1 -p AODV -e 102 -c 2 -a 0 -i 0 -k MAC 
- -t 9.119506875 -s 1 -d -1 -p AODV -e 102 -c 2 -a 0 -i 0 -k MAC
h -t 9.119506875 -s 1 -d -1 -p AODV -e 102 -c 2 -a 0 -i 0 -k MAC
r -t 9.120323092 -s 2 -d -1 -p AODV -e 44 -c 2 -a 0 -i 0 -k MAC
r -t 9.120323499 -s 3 -d -1 -p AODV -e 44 -c 2 -a 0 -i 0 -k MAC
r -t 9.120348092 -s 2 -d -1 -p AODV -e 44 -c 2 -a 0 -i 0 -k RTR
r -t 9.120348499 -s 3 -d -1 -p AODV -e 44 -c 2 -a 0 -i 0 -k RTR
+ -t 9.120752875 -s 1 -d -1 -p AODV -e 102 -c 2 -a 0 -i 0 -k MAC 
- -t 9.120752875 -s 1 -d -1 -p AODV -e 102 -c 2 -a 0 -i 0 -k MAC
h -t 9.120752875 -s 1 -d -1 -p AODV -e 102 -c 2 -a 0 -i 0 -k MAC
r -t 9.121569092 -s 2 -d -1 -p AODV -e 44 -c 2 -a 0 -i 0 -k MAC
r -t 9.121569499 -s 3 -d -1 -p AODV -e 44 -c 2 -a 0 -i 0 -k MAC
r -t 9.121594092 -s 2 -d -1 -p AODV -e 44 -c 2 -a 0 -i 0 -k RTR
r -t 9.121594499 -s 3 -d -1 -p AODV -e 44 -c 2 -a 0 -i 0 -k RTR
+ -t 9.410611819 -s 1 -d -1 -p cbr -e 512 -c 2 -a 0 -i 13 -k AGT 
- -t 9.410611819 -s 1 -d -1 -p cbr -e 512 -c 2 -a 0 -i 13 -k AGT
h -t 9.410611819 -s 1 -d -1 -p cbr -e 512 -c 2 -a 0 -i 13 -k AGT
+ -t 9.890758279 -s 3 -d -1 -p AODV -e 44 -c 2 -a 0 -i 0 -k RTR 
- -t 9.890758279 -s 3 -d -1 -p AODV -e 44 -c 2 -a 0 -i 0 -k RTR
h -t 9.890758279 -s 3 -d -1 -p AODV -e 44 -c 2 -a 0 -i 0 -k RTR
+ -t 9.890758279 -s 3 -d -1 -p AODV -e 44 -c 2 -a 0 -i 0 -k RTR 
- -t 9.890758279 -s 3 -d -1 -p AODV -e 44 -c 2 -a 0 -i 0 -k RTR
h -t 9.890758279 -s 3 -d -1 -p AODV -e 44 -c 2 -a 0 -i 0 -k RTR
+ -t 9.890758279 -s 3 -d -1 -p AODV -e 44 -c 2 -a 0 -i 0 -k RTR 
- -t 9.890758279 -s 3 -d -1 -p AODV -e 44 -c 2 -a 0 -i 0 -k RTR
h -t 9.890758279 -s 3 -d -1 -p AODV -e 44 -c 2 -a 0 -i 0 -k RTR
+ -t 9.891013279 -s 3 -d -1 -p AODV -e 102 -c 2 -a 0 -i 0 -k MAC 
- -t 9.891013279 -s 3 -d -1 -p AODV -e 102 -c 2 -a 0 -i 0 -k MAC
h -t 9.891013279 -s 3 -d -1 -p AODV -e 102 -c 2 -a 0 -i 0 -k MAC
r -t 9.891829890 -s 1 -d -1 -p AODV -e 44 -c 2 -a 0 -i 0 -k MAC
r -t 9.891830028 -s 2 -d -1 -p AODV -e 44 -c 2 -a 0 -i 0 -k MAC
r -t 9.891830058 -s 0 -d -1 -p AODV -e 44 -c 2 -a 0 -i 0 -k MAC
r -t 9.891854890 -s 1 -d -1 -p AODV -e 44 -c 2 -a 0 -i 0 -k RTR
r -t 9.891855028 -s 2 -d -1 -p AODV -e 44 -c 2 -a 0 -i 0 -k RTR
r -t 9.891855058 -s 0 -d -1 -p AODV -e 44 -c 2 -a 0 -i 0 -k RTR
+ -t 9.892419279 -s 3 -d -1 -p AODV -e 102 -c 2 -a 0 -i 0 -k MAC 
- -t 9.892419279 -s 3 -d -1 -p AODV -e 102 -c 2 -a 0 -i 0 -k MAC
h -t 9.892419279 -s 3 -d -1 -p AODV -e 102 -c 2 -a 0 -i 0 -k MAC
r -t 9.893235890 -s 1 -d -1 -p AODV -e 44 -c 2 -a 0 -i 0 -k MAC
r -t 9.893236028 -s 2 -d -1 -p AODV -e 44 -c 2 -a 0 -i 0 -k MAC
r -t 9.893236058 -s 0 -d -1 -p AODV -e 44 -c 2 -a 0 -i 0 -k MAC
r -t 9.893260890 -s 1 -d -1 -p AODV -e 44 -c 2 -a 0 -i 0 -k RTR
r -t 9.893261028 -s 2 -d -1 -p AODV -e 44 -c 2 -a 0 -i 0 -k RTR
r -t 9.893261058 -s 0 -d -1 -p AODV -e 44 -c 2 -a 0 -i 0 -k RTR
+ -t 9.893465279 -s 3 -d -1 -p AODV -e 102 -c 2 -a 0 -i 0 -k MAC 
- -t 9.893465279 -s 3 -d -1 -p AODV -e 102 -c 2 -a 0 -i 0 -k MAC
h -t 9.893465279 -s 3 -d -1 -p AODV -e 102 -c 2 -a 0 -i 0 -k MAC
r -t 9.894281890 -s 1 -d -1 -p AODV -e 44 -c 2 -a 0 -i 0 -k MAC
r -t 9.894282027 -s 2 -d -1 -p AODV -e 44 -c 2 -a 0 -i 0 -k MAC
r -t 9.894282058 -s 0 -d -1 -p AODV -e 44 -c 2 -a 0 -i 0 -k MAC
r -t 9.894306890 -s 1 -d -1 -p AODV -e 44 -c 2 -a 0 -i 0 -k RTR
r -t 9.894307027 -s 2 -d -1 -p AODV -e 44 -c 2 -a 0 -i 0 -k RTR
r -t 9.894307058 -s 0 -d -1 -p AODV -e 44 -c 2 -a 0 -i 0 -k RTR
+ -t 9.923208827 -s 0 -d -1 -p AODV -e 44 -c 2 -a 0 -i 0 -k RTR 