M 0.00000 0 (42.29, 496.65, 0.00), (498.59, 412.67), 16.87
M 0.00000 1 (220.60, 179.75, 0.00), (72.83, 396.32), 0.09
M 0.00000 2 (193.97, 48.18, 0.00), (344.50, 459.96), 7.84
M 0.00000 3 (329.66, 413.33, 0.00), (444.18, 16.38), 12.56
s -t 2.556838879 -Hs 1 -Hd -2 -Ni 1 -Nx 220.46 -Ny 179.94 -Nz 0.00 -Ne -1.000000 -Nl AGT -Nw --- -Ma 0 -Md 0 -Ms 0 -Mt 0 -Is 1.0 -Id 2.0 -It cbr -Il 512 -If 0 -Ii 0 -Iv 32 -Pn cbr -Pi 0 -Pf 0 -Po 1 
r -t 2.556838879 -Hs 1 -Hd -2 -Ni 1 -Nx 220.46 -Ny 179.94 -Nz 0.00 -Ne -1.000000 -Nl RTR -Nw --- -Ma 0 -Md 0 -Ms 0 -Mt 0 -Is 1.0 -Id 2.0 -It cbr -Il 512 -If 0 -Ii 0 -Iv 32 -Pn cbr -Pi 0 -Pf 0 -Po 1 
f -t 2.556838879 -Hs 1 -Hd -2 -Ni 1 -Nx 220.46 -Ny 179.94 -Nz 0.00 -Ne -1.000000 -Nl RTR -Nw --- -Ma 0 -Md 0 -Ms 0 -Mt 0 -Is 32886.255 -Id -1.255 -It AODV -Il 48 -If 0 -Ii 0 -Iv 30 -P aodv -Pt 0x2 -Ph 1 -Pb 1 -Pd 2 -Pds 0 -Ps 32886 -Pss 4 -Pc REQUEST 
s -t 2.557453879 -Hs 1 -Hd -2 -Ni 1 -Nx 220.46 -Ny 179.94 -Nz 0.00 -Ne -1.000000 -Nl MAC -Nw --- -Ma 0 -Md ffffffff -Ms 1 -Mt 800 -Is 32886.255 -Id -1.255 -It AODV -Il 106 -If 0 -Ii 0 -Iv 30 -P aodv -Pt 0x2 -Ph 1 -Pb 1 -Pd 2 -Pds 0 -Ps 32886 -Pss 4 -Pc REQUEST 
r -t 2.558302261 -Hs 2 -Hd -2 -Ni 2 -Nx 200.86 -Ny 67.02 -Nz 0.00 -Ne -1.000000 -Nl MAC -Nw --- -Ma 0 -Md ffffffff -Ms 1 -Mt 800 -Is 32886.255 -Id -1.255 -It AODV -Il 48 -If 0 -Ii 0 -Iv 30 -P aodv -Pt 0x2 -Ph 1 -Pb 1 -Pd 2 -Pds 0 -Ps 32886 -Pss 4 -Pc REQUEST 
r -t 2.558302660 -Hs 3 -Hd -2 -Ni 3 -Nx 338.57 -Ny 382.45 -Nz 0.00 -Ne -1.000000 -Nl MAC -Nw --- -Ma 0 -Md ffffffff -Ms 1 -Mt 800 -Is 32886.255 -Id -1.255 -It AODV -Il 48 -If 0 -Ii 0 -Iv 30 -P aodv -Pt 0x2 -Ph 1 -Pb 1 -Pd 2 -Pds 0 -Ps 32886 -Pss 4 -Pc REQUEST 
r -t 2.558327261 -Hs 2 -Hd -2 -Ni 2 -Nx 200.86 -Ny 67.02 -Nz 0.00 -Ne -1.000000 -Nl RTR -Nw --- -Ma 0 -Md ffffffff -Ms 1 -Mt 800 -Is 32886.255 -Id -1.255 -It AODV -Il 48 -If 0 -Ii 0 -Iv 30 -P aodv -Pt 0x2 -Ph 1 -Pb 1 -Pd 2 -Pds 0 -Ps 32886 -Pss 4 -Pc REQUEST 
s -t 2.558327261 -Hs 2 -Hd 32886 -Ni 2 -Nx 200.86 -Ny 67.02 -Nz 0.00 -Ne -1.000000 -Nl RTR -Nw --- -Ma 0 -Md 0 -Ms 0 -Mt 0 -Is 2.255 -Id 32886.255 -It AODV -Il 44 -If 0 -Ii 0 -Iv 30 -P aodv -Pt 0x4 -Ph 1 -Pd 2 -Pds 4 -Pl 10.000000 -Pc REPLY 
r -t 2.558327660 -Hs 3 -Hd -2 -Ni 3 -Nx 338.57 -Ny 382.45 -Nz 0.00 -Ne -1.000000 -Nl RTR -Nw --- -Ma 0 -Md ffffffff -Ms 1 -Mt 800 -Is 32886.255 -Id -1.255 -It AODV -Il 48 -If 0 -Ii 0 -Iv 30 -P aodv -Pt 0x2 -Ph 1 -Pb 1 -Pd 2 -Pds 0 -Ps 32886 -Pss 4 -Pc REQUEST 
s -t 2.558622261 -Hs 2 -Hd -2 -Ni 2 -Nx 200.86 -Ny 67.03 -Nz 0.00 -Ne -1.000000 -Nl MAC -Nw --- -Ma 0 -Md ffffffff -Ms 2 -Mt 806 -P arp -Po REQUEST -Pms 2 -Ps 2 -Pmd 0 -Pd 32886 
r -t 2.559310643 -Hs 1 -Hd -2 -Ni 1 -Nx 220.46 -Ny 179.94 -Nz 0.00 -Ne -1.000000 -Nl MAC -Nw --- -Ma 0 -Md ffffffff -Ms 2 -Mt 806 -P arp -Po REQUEST -Pms 2 -Ps 2 -Pmd 0 -Pd 32886 
f -t 2.559465743 -Hs 3 -Hd -2 -Ni 3 -Nx 338.58 -Ny 382.43 -Nz 0.00 -Ne -1.000000 -Nl RTR -Nw --- -Ma 0 -Md ffffffff -Ms 1 -Mt 800 -Is 963165.255 -Id -1.255 -It AODV -Il 48 -If 0 -Ii 0 -Iv 29 -P aodv -Pt 0x2 -Ph 2 -Pb 1 -Pd 2 -Pds 0 -Ps 32886 -Pss 4 -Pc REQUEST 
s -t 2.560205408 -Hs 3 -Hd -2 -Ni 3 -Nx 338.58 -Ny 382.42 -Nz 0.00 -Ne -1.000000 -Nl MAC -Nw --- -Ma 0 -Md ffffffff -Ms 3 -Mt 800 -Is 963165.255 -Id -1.255 -It AODV -Il 106 -If 0 -Ii 0 -Iv 29 -P aodv -Pt 0x2 -Ph 2 -Pb 1 -Pd 2 -Pds 0 -Ps 32886 -Pss 4 -Pc REQUEST 
r -t 2.561054189 -Hs 1 -Hd -2 -Ni 1 -Nx 220.46 -Ny 179.94 -Nz 0.00 -Ne -1.000000 -Nl MAC -Nw --- -Ma 0 -Md ffffffff -Ms 3 -Mt 800 -Is 963165.255 -Id -1.255 -It AODV -Il 48 -If 0 -Ii 0 -Iv 29 -P aodv -Pt 0x2 -Ph 2 -Pb 1 -Pd 2 -Pds 0 -Ps 32886 -Pss 4 -Pc REQUEST 
r -t 2.561079189 -Hs 1 -Hd -2 -Ni 1 -Nx 220.46 -Ny 179.94 -Nz 0.00 -Ne -1.000000 -Nl RTR -Nw --- -Ma 0 -Md ffffffff -Ms 3 -Mt 800 -Is 963165.255 -Id -1.255 -It AODV -Il 48 -If 0 -Ii 0 -Iv 29 -P aodv -Pt 0x2 -Ph 2 -Pb 1 -Pd 2 -Pds 0 -Ps 32886 -Pss 4 -Pc REQUEST 
f -t 2.567843097 -Hs 3 -Hd -2 -Ni 3 -Nx 338.61 -Ny 382.33 -Nz 0.00 -Ne -1.000000 -Nl RTR -Nw --- -Ma 0 -Md 0 -Ms 0 -Mt 0 -Is 963165.255 -Id -1.255 -It AODV -Il 44 -If 0 -Ii 0 -Iv 1 -P aodv -Pt 0x1 -Ph 1 -Pd 963165 -Pds 2 -Pl 4.000000 -Pc HELLO 
s -t 2.568118097 -Hs 3 -Hd -2 -Ni 3 -Nx 338.61 -Ny 382.33 -Nz 0.00 -Ne -1.000000 -Nl MAC -Nw --- -Ma 0 -Md ffffffff -Ms 3 -Mt 800 -Is 963165.255 -Id -1.255 -It AODV -Il 102 -If 0 -Ii 0 -Iv 1 -P aodv -Pt 0x1 -Ph 1 -Pd 963165 -Pds 2 -Pl 4.000000 -Pc HELLO 
r -t 2.568934879 -Hs 1 -Hd -2 -Ni 1 -Nx 220.46 -Ny 179.94 -Nz 0.00 -Ne -1.000000 -Nl MAC -Nw --- -Ma 0 -Md ffffffff -Ms 3 -Mt 800 -Is 963165.255 -Id -1.255 -It AODV -Il 44 -If 0 -Ii 0 -Iv 1 -P aodv -Pt 0x1 -Ph 1 -Pd 963165 -Pds 2 -Pl 4.000000 -Pc HELLO 
r -t 2.568959879 -Hs 1 -Hd -2 -Ni 1 -Nx 220.46 -Ny 179.94 -Nz 0.00 -Ne -1.000000 -Nl RTR -Nw --- -Ma 0 -Md ffffffff -Ms 3 -Mt 800 -Is 963165.255 -Id -1.255 -It AODV -Il 44 -If 0 -Ii 0 -Iv 1 -P aodv -Pt 0x1 -Ph 1 -Pd 963165 -Pds 2 -Pl 4.000000 -Pc HELLO 
s -t 2.888911582 -Hs 1 -Hd -2 -Ni 1 -Nx 220.45 -Ny 179.96 -Nz 0.00 -Ne -1.000000 -Nl AGT -Nw --- -Ma 0 -Md 0 -Ms 0 -Mt 0 -Is 1.0 -Id 2.0 -It cbr -Il 512 -If 0 -Ii 1 -Iv 32 -Pn cbr -Pi 1 -Pf 0 -Po 1 
r -t 2.888911582 -Hs 1 -Hd -2 -Ni 1 -Nx 220.45 -Ny 179.96 -Nz 0.00 -Ne -1.000000 -Nl RTR -Nw --- -Ma 0 -Md 0 -Ms 0 -Mt 0 -Is 1.0 -Id 2.0 -It cbr -Il 512 -If 0 -Ii 1 -Iv 32 -Pn cbr -Pi 1 -Pf 0 -Po 1 
f -t 3.354340152 -Hs 1 -Hd -2 -Ni 1 -Nx 220.42 -Ny 180.00 -Nz 0.00 -Ne -1.000000 -Nl RTR -Nw --- -Ma 0 -Md 0 -Ms 0 -Mt 0 -Is 32886.255 -Id -1.255 -It AODV -Il 44 -If 0 -Ii 0 -Iv 1 -P aodv -Pt 0x1 -Ph 1 -Pd 32886 -Pds 6 -Pl 4.000000 -Pc HELLO 
s -t 3.354995152 -Hs 1 -Hd -2 -Ni 1 -Nx 220.42 -Ny 180.00 -Nz 0.00 -Ne -1.000000 -Nl MAC -Nw --- -Ma 0 -Md ffffffff -Ms 1 -Mt 800 -Is 32886.255 -Id -1.255 -It AODV -Il 102 -If 0 -Ii 0 -Iv 1 -P aodv -Pt 0x1 -Ph 1 -Pd 32886 -Pds 6 -Pl 4.000000 -Pc HELLO 
r -t 3.355811514 -Hs 2 -Hd -2 -Ni 2 -Nx 203.00 -Ny 72.90 -Nz 0.00 -Ne -1.000000 -Nl MAC -Nw --- -Ma 0 -Md ffffffff -Ms 1 -Mt 800 -Is 32886.255 -Id -1.255 -It AODV -Il 44 -If 0 -Ii 0 -Iv 1 -P aodv -Pt 0x1 -Ph 1 -Pd 32886 -Pds 6 -Pl 4.000000 -Pc HELLO 
r -t 3.355811911 -Hs 3 -Hd -2 -Ni 3 -Nx 341.35 -Ny 372.82 -Nz 0.00 -Ne -1.000000 -Nl MAC -Nw --- -Ma 0 -Md ffffffff -Ms 1 -Mt 800 -Is 32886.255 -Id -1.255 -It AODV -Il 44 -If 0 -Ii 0 -Iv 1 -P aodv -Pt 0x1 -Ph 1 -Pd 32886 -Pds 6 -Pl 4.000000 -Pc HELLO 
r -t 3.355836514 -Hs 2 -Hd -2 -Ni 2 -Nx 203.00 -Ny 72.90 -Nz 0.00 -Ne -1.000000 -Nl RTR -Nw --- -Ma 0 -Md ffffffff -Ms 1 -Mt 800 -Is 32886.255 -Id -1.255 -It AODV -Il 44 -If 0 -Ii 0 -Iv 1 -P aodv -Pt 0x1 -Ph 1 -Pd 32886 -Pds 6 -Pl 4.000000 -Pc HELLO 
r -t 3.355836911 -Hs 3 -Hd -2 -Ni 3 -Nx 341.35 -Ny 372.82 -Nz 0.00 -Ne -1.000000 -Nl RTR -Nw --- -Ma 0 -Md ffffffff -Ms 1 -Mt 800 -Is 32886.255 -Id -1.255 -It AODV -Il 44 -If 0 -Ii 0 -Iv 1 -P aodv -Pt 0x1 -Ph 1 -Pd 32886 -Pds 6 -Pl 4.000000 -Pc HELLO 
s -t 3.371969550 -Hs 1 -Hd -2 -Ni 1 -Nx 220.42 -Ny 180.00 -Nz 0.00 -Ne -1.000000 -Nl AGT -Nw --- -Ma 0 -Md 0 -Ms 0 -Mt 0 -Is 1.0 -Id 2.0 -It cbr -Il 512 -If 0 -Ii 2 -Iv 32 -Pn cbr -Pi 2 -Pf 0 -Po 1 
r -t 3.371969550 -Hs 1 -Hd -2 -Ni 1 -Nx 220.42 -Ny 180.00 -Nz 0.00 -Ne -1.000000 -Nl RTR -Nw --- -Ma 0 -Md 0 -Ms 0 -Mt 0 -Is 1.0 -Id 2.0 -It cbr -Il 512 -If 0 -Ii 2 -Iv 32 -Pn cbr -Pi 2 -Pf 0 -Po 1 
f -t 3.721357374 -Hs 3 -Hd -2 -Ni 3 -Nx 342.63 -Ny 368.41 -Nz 0.00 -Ne -1.000000 -Nl RTR -Nw --- -Ma 0 -Md 0 -Ms 0 -Mt 0 -Is 963165.255 -Id -1.255 -It AODV -Il 44 -If 0 -Ii 0 -Iv 1 -P aodv -Pt 0x1 -Ph 1 -Pd 963165 -Pds 4 -Pl 4.000000 -Pc HELLO 
s -t 3.721472374 -Hs 3 -Hd -2 -Ni 3 -Nx 342.63 -Ny 368.40 -Nz 0.00 -Ne -1.000000 -Nl MAC -Nw --- -Ma 0 -Md ffffffff -Ms 3 -Mt 800 -Is 963165.255 -Id -1.255 -It AODV -Il 102 -If 0 -Ii 0 -Iv 1 -P aodv -Pt 0x1 -Ph 1 -Pd 963165 -Pds 4 -Pl 4.000000 -Pc HELLO 
r -t 3.722289123 -Hs 1 -Hd -2 -Ni 1 -Nx 220.40 -Ny 180.03 -Nz 0.00 -Ne -1.000000 -Nl MAC -Nw --- -Ma 0 -Md ffffffff -Ms 3 -Mt 800 -Is 963165.255 -Id -1.255 -It AODV -Il 44 -If 0 -Ii 0 -Iv 1 -P aodv -Pt 0x1 -Ph 1 -Pd 963165 -Pds 4 -Pl 4.000000 -Pc HELLO 
r -t 3.722314123 -Hs 1 -Hd -2 -Ni 1 -Nx 220.40 -Ny 180.03 -Nz 0.00 -Ne -1.000000 -Nl RTR -Nw --- -Ma 0 -Md ffffffff -Ms 3 -Mt 800 -Is 963165.255 -Id -1.255 -It AODV -Il 44 -If 0 -Ii 0 -Iv 1 -P aodv -Pt 0x1 -Ph 1 -Pd 963165 -Pds 4 -Pl 4.000000 -Pc HELLO 
s -t 3.730549280 -Hs 1 -Hd -2 -Ni 1 -Nx 220.40 -Ny 180.03 -Nz 0.00 -Ne -1.000000 -Nl AGT -Nw --- -Ma 0 -Md 0 -Ms 0 -Mt 0 -Is 1.0 -Id 2.0 -It cbr -Il 512 -If 0 -Ii 3 -Iv 32 -Pn cbr -Pi 3 -Pf 0 -Po 1 
r -t 3.730549280 -Hs 1 -Hd -2 -Ni 1 -Nx 220.40 -Ny 180.03 -Nz 0.00 -Ne -1.000000 -Nl RTR -Nw --- -Ma 0 -Md 0 -Ms 0 -Mt 0 -Is 1.0 -Id 2.0 -It cbr -Il 512 -If 0 -Ii 3 -Iv 32 -Pn cbr -Pi 3 -Pf 0 -Po 1 
s -t 4.361665226 -Hs 1 -Hd -2 -Ni 1 -Nx 220.37 -Ny 180.08 -Nz 0.00 -Ne -1.000000 -Nl AGT -Nw --- -Ma 0 -Md 0 -Ms 0 -Mt 0 -Is 1.0 -Id 2.0 -It cbr -Il 512 -If 0 -Ii 4 -Iv 32 -Pn cbr -Pi 4 -Pf 0 -Po 1 
r -t 4.361665226 -Hs 1 -Hd -2 -Ni 1 -Nx 220.37 -Ny 180.08 -Nz 0.00 -Ne -1.000000 -Nl RTR -Nw --- -Ma 0 -Md 0 -Ms 0 -Mt 0 -Is 1.0 -Id 2.0 -It cbr -Il 512 -If 0 -Ii 4 -Iv 32 -Pn cbr -Pi 4 -Pf 0 -Po 1 
f -t 4.361665226 -Hs 1 -Hd -2 -Ni 1 -Nx 220.37 -Ny 180.08 -Nz 0.00 -Ne -1.000000 -Nl RTR -Nw --- -Ma 0 -Md 0 -Ms 0 -Mt 0 -Is 80308.255 -Id -1.255 -It AODV -Il 48 -If 0 -Ii 0 -Iv 30 -P aodv -Pt 0x2 -Ph 1 -Pb 2 -Pd 2 -Pds 0 -Ps 80308 -Pss 8 -Pc REQUEST 
s -t 4.361940226 -Hs 1 -Hd -2 -Ni 1 -Nx 220.37 -Ny 180.08 -Nz 0.00 -Ne -1.000000 -Nl MAC -Nw --- -Ma 0 -Md ffffffff -Ms 1 -Mt 800 -Is 80308.255 -Id -1.255 -It AODV -Il 106 -If 0 -Ii 0 -Iv 30 -P aodv -Pt 0x2 -Ph 1 -Pb 2 -Pd 2 -Pds 0 -Ps 80308 -Pss 8 -Pc REQUEST 
r -t 4.362788562 -Hs 2 -Hd -2 -Ni 2 -Nx 205.71 -Ny 80.31 -Nz 0.00 -Ne -1.000000 -Nl MAC -Nw --- -Ma 0 -Md ffffffff -Ms 1 -Mt 800 -Is 80308.255 -Id -1.255 -It AODV -Il 48 -If 0 -Ii 0 -Iv 30 -P aodv -Pt 0x2 -Ph 1 -Pb 2 -Pd 2 -Pds 0 -Ps 80308 -Pss 8 -Pc REQUEST 
r -t 4.362788957 -Hs 3 -Hd -2 -Ni 3 -Nx 344.86 -Ny 360.66 -Nz 0.00 -Ne -1.000000 -Nl MAC -Nw --- -Ma 0 -Md ffffffff -Ms 1 -Mt 800 -Is 80308.255 -Id -1.255 -It AODV -Il 48 -If 0 -Ii 0 -Iv 30 -P aodv -Pt 0x2 -Ph 1 -Pb 2 -Pd 2 -Pds 0 -Ps 80308 -Pss 8 -Pc REQUEST 
r -t 4.362813562 -Hs 2 -Hd -2 -Ni 2 -Nx 205.71 -Ny 80.31 -Nz 0.00 -Ne -1.000000 -Nl RTR -Nw --- -Ma 0 -Md ffffffff -Ms 1 -Mt 800 -Is 80308.255 -Id -1.255 -It AODV -Il 48 -If 0 -Ii 0 -Iv 30 -P aodv -Pt 0x2 -Ph 1 -Pb 2 -Pd 2 -Pds 0 -Ps 80308 -Pss 8 -Pc REQUEST 
s -t 4.362813562 -Hs 2 -Hd 80308 -Ni 2 -Nx 205.71 -Ny 80.31 -Nz 0.00 -Ne -1.000000 -Nl RTR -Nw --- -Ma 0 -Md 0 -Ms 0 -Mt 0 -Is 2.255 -Id 80308.255 -It AODV -Il 44 -If 0 -Ii 0 -Iv 30 -P aodv -Pt 0x4 -Ph 1 -Pd 2 -Pds 8 -Pl 10.000000 -Pc REPLY 
r -t 4.362813957 -Hs 3 -Hd -2 -Ni 3 -Nx 344.86 -Ny 360.66 -Nz 0.00 -Ne -1.000000 -Nl RTR -Nw --- -Ma 0 -Md ffffffff -Ms 1 -Mt 800 -Is 80308.255 -Id -1.255 -It AODV -Il 48 -If 0 -Ii 0 -Iv 30 -P aodv -Pt 0x2 -Ph 1 -Pb 2 -Pd 2 -Pds 0 -Ps 80308 -Pss 8 -Pc REQUEST 
s -t 4.363088562 -Hs 2 -Hd -2 -Ni 2 -Nx 205.71 -Ny 80.32 -Nz 0.00 -Ne -1.000000 -Nl MAC -Nw --- -Ma 0 -Md ffffffff -Ms 2 -Mt 806 -P arp -Po REQUEST -Pms 2 -Ps 2 -Pmd 0 -Pd 80308 
r -t 4.363776899 -Hs 1 -Hd -2 -Ni 1 -Nx 220.37 -Ny 180.08 -Nz 0.00 -Ne -1.000000 -Nl MAC -Nw --- -Ma 0 -Md ffffffff -Ms 2 -Mt 806 -P arp -Po REQUEST -Pms 2 -Ps 2 -Pmd 0 -Pd 80308 
f -t 4.371688393 -Hs 3 -Hd -2 -Ni 3 -Nx 344.89 -Ny 360.55 -Nz 0.00 -Ne -1.000000 -Nl RTR -Nw --- -Ma 0 -Md ffffffff -Ms 1 -Mt 800 -Is 707594.255 -Id -1.255 -It AODV -Il 48 -If 0 -Ii 0 -Iv 29 -P aodv -Pt 0x2 -Ph 2 -Pb 2 -Pd 2 -Pds 0 -Ps 80308 -Pss 8 -Pc REQUEST 
s -t 4.372343393 -Hs 3 -Hd -2 -Ni 3 -Nx 344.89 -Ny 360.55 -Nz 0.00 -Ne -1.000000 -Nl MAC -Nw --- -Ma 0 -Md ffffffff -Ms 3 -Mt 800 -Is 707594.255 -Id -1.255 -It AODV -Il 106 -If 0 -Ii 0 -Iv 29 -P aodv -Pt 0x2 -Ph 2 -Pb 2 -Pd 2 -Pds 0 -Ps 80308 -Pss 8 -Pc REQUEST 
r -t 4.373192124 -Hs 1 -Hd -2 -Ni 1 -Nx 220.37 -Ny 180.08 -Nz 0.00 -Ne -1.000000 -Nl MAC -Nw --- -Ma 0 -Md ffffffff -Ms 3 -Mt 800 -Is 707594.255 -Id -1.255 -It AODV -Il 48 -If 0 -Ii 0 -Iv 29 -P aodv -Pt 0x2 -Ph 2 -Pb 2 -Pd 2 -Pds 0 -Ps 80308 -Pss 8 -Pc REQUEST 
r -t 4.373217124 -Hs 1 -Hd -2 -Ni 1 -Nx 220.37 -Ny 180.08 -Nz 0.00 -Ne -1.000000 -Nl RTR -Nw --- -Ma 0 -Md ffffffff -Ms 3 -Mt 800 -Is 707594.255 -Id -1.255 -It AODV -Il 48 -If 0 -Ii 0 -Iv 29 -P aodv -Pt 0x2 -Ph 2 -Pb 2 -Pd 2 -Pds 0 -Ps 80308 -Pss 8 -Pc REQUEST 
f -t 4.450493568 -Hs 1 -Hd -2 -Ni 1 -Nx 220.37 -Ny 180.08 -Nz 0.00 -Ne -1.000000 -Nl RTR -Nw --- -Ma 0 -Md 0 -Ms 0 -Mt 0 -Is 80308.255 -Id -1.255 -It AODV -Il 44 -If 0 -Ii 0 -Iv 1 -P aodv -Pt 0x1 -Ph 1 -Pd 80308 -Pds 8 -Pl 4.000000 -Pc HELLO 
f -t 4.450493568 -Hs 1 -Hd -2 -Ni 1 -Nx 220.37 -Ny 180.08 -Nz 0.00 -Ne -1.000000 -Nl RTR -Nw --- -Ma 0 -Md 0 -Ms 0 -Mt 0 -Is 32886.255 -Id -1.255 -It AODV -Il 44 -If 0 -Ii 0 -Iv 1 -P aodv -Pt 0x1 -Ph 1 -Pd 32886 -Pds 8 -Pl 4.000000 -Pc HELLO 
s -t 4.450908568 -Hs 1 -Hd -2 -Ni 1 -Nx 220.37 -Ny 180.08 -Nz 0.00 -Ne -1.000000 -Nl MAC -Nw --- -Ma 0 -Md ffffffff -Ms 1 -Mt 800 -Is 80308.255 -Id -1.255 -It AODV -Il 102 -If 0 -Ii 0 -Iv 1 -P aodv -Pt 0x1 -Ph 1 -Pd 80308 -Pds 8 -Pl 4.000000 -Pc HELLO 
r -t 4.451724902 -Hs 2 -Hd -2 -Ni 2 -Nx 205.95 -Ny 80.97 -Nz 0.00 -Ne -1.000000 -Nl MAC -Nw --- -Ma 0 -Md ffffffff -Ms 1 -Mt 800 -Is 80308.255 -Id -1.255 -It AODV -Il 44 -If 0 -Ii 0 -Iv 1 -P aodv -Pt 0x1 -Ph 1 -Pd 80308 -Pds 8 -Pl 4.000000 -Pc HELLO 
r -t 4.451725297 -Hs 3 -Hd -2 -Ni 3 -Nx 345.17 -Ny 359.59 -Nz 0.00 -Ne -1.000000 -Nl MAC -Nw --- -Ma 0 -Md ffffffff -Ms 1 -Mt 800 -Is 80308.255 -Id -1.255 -It AODV -Il 44 -If 0 -Ii 0 -Iv 1 -P aodv -Pt 0x1 -Ph 1 -Pd 80308 -Pds 8 -Pl 4.000000 -Pc HELLO 
r -t 4.451749902 -Hs 2 -Hd -2 -Ni 2 -Nx 205.95 -Ny 80.97 -Nz 0.00 -Ne -1.000000 -Nl RTR -Nw --- -Ma 0 -Md ffffffff -Ms 1 -Mt 800 -Is 80308.255 -Id -1.255 -It AODV -Il 44 -If 0 -Ii 0 -Iv 1 -P aodv -Pt 0x1 -Ph 1 -Pd 80308 -Pds 8 -Pl 4.000000 -Pc HELLO 
r -t 4.451750297 -Hs 3 -Hd -2 -Ni 3 -Nx 345.17 -Ny 359.59 -Nz 0.00 -Ne -1.000000 -Nl RTR -Nw --- -Ma 0 -Md ffffffff -Ms 1 -Mt 800 -Is 80308.255 -Id -1.255 -It AODV -Il 44 -If 0 -Ii 0 -Iv 1 -P aodv -Pt 0x1 -Ph 1 -Pd 80308 -Pds 8 -Pl 4.000000 -Pc HELLO 
s -t 4.452274568 -Hs 1 -Hd -2 -Ni 1 -Nx 220.37 -Ny 180.08 -Nz 0.00 -Ne -1.000000 -Nl MAC -Nw --- -Ma 0 -Md ffffffff -Ms 1 -Mt 800 -Is 32886.255 -Id -1.255 -It AODV -Il 102 -If 0 -Ii 0 -Iv 1 -P aodv -Pt 0x1 -Ph 1 -Pd 32886 -Pds 8 -Pl 4.000000 -Pc HELLO 
r -t 4.453090902 -Hs 2 -Hd -2 -Ni 2 -Nx 205.96 -Ny 80.98 -Nz 0.00 -Ne -1.000000 -Nl MAC -Nw --- -Ma 0 -Md ffffffff -Ms 1 -Mt 800 -Is 32886.255 -Id -1.255 -It AODV -Il 44 -If 0 -Ii 0 -Iv 1 -P aodv -Pt 0x1 -Ph 1 -Pd 32886 -Pds 8 -Pl 4.000000 -Pc HELLO 
r -t 4.453091297 -Hs 3 -Hd -2 -Ni 3 -Nx 345.17 -Ny 359.57 -Nz 0.00 -Ne -1.000000 -Nl MAC -Nw --- -Ma 0 -Md ffffffff -Ms 1 -Mt 800 -Is 32886.255 -Id -1.255 -It AODV -Il 44 -If 0 -Ii 0 -Iv 1 -P aodv -Pt 0x1 -Ph 1 -Pd 32886 -Pds 8 -Pl 4.000000 -Pc HELLO 
r -t 4.453115902 -Hs 2 -Hd -2 -Ni 2 -Nx 205.96 -Ny 80.98 -Nz 0.00 -Ne -1.000000 -Nl RTR -Nw --- -Ma 0 -Md ffffffff -Ms 1 -Mt 800 -Is 32886.255 -Id -1.255 -It AODV -Il 44 -If 0 -Ii 0 -Iv 1 -P aodv -Pt 0x1 -Ph 1 -Pd 32886 -Pds 8 -Pl 4.000000 -Pc HELLO 
r -t 4.453116297 -Hs 3 -Hd -2 -Ni 3 -Nx 345.17 -Ny 359.57 -Nz 0.00 -Ne -1.000000 -Nl RTR -Nw --- -Ma 0 -Md ffffffff -Ms 1 -Mt 800 -Is 32886.255 -Id -1.255 -It AODV -Il 44 -If 0 -Ii 0 -Iv 1 -P aodv -Pt 0x1 -Ph 1 -Pd 32886 -Pds 8 -Pl 4.000000 -Pc HELLO 
f -t 4.591970188 -Hs 3 -Hd -2 -Ni 3 -Nx 345.66 -Ny 357.89 -Nz 0.00 -Ne -1.000000 -Nl RTR -Nw --- -Ma 0 -Md 0 -Ms 0 -Mt 0 -Is 707594.255 -Id -1.255 -It AODV -Il 44 -If 0 -Ii 0 -Iv 1 -P aodv -Pt 0x1 -Ph 1 -Pd 707594 -Pds 6 -Pl 4.000000 -Pc HELLO 
f -t 4.591970188 -Hs 3 -Hd -2 -Ni 3 -Nx 345.66 -Ny 357.89 -Nz 0.00 -Ne -1.000000 -Nl RTR -Nw --- -Ma 0 -Md 0 -Ms 0 -Mt 0 -Is 963165.255 -Id -1.255 -It AODV -Il 44 -If 0 -Ii 0 -Iv 1 -P aodv -Pt 0x1 -Ph 1 -Pd 963165 -Pds 6 -Pl 4.000000 -Pc HELLO 
s -t 4.592325188 -Hs 3 -Hd -2 -Ni 3 -Nx 345.66 -Ny 357.89 -Nz 0.00 -Ne -1.000000 -Nl MAC -Nw --- -Ma 0 -Md ffffffff -Ms 3 -Mt 800 -Is 707594.255 -Id -1.255 -It AODV -Il 102 -If 0 -Ii 0 -Iv 1 -P aodv -Pt 0x1 -Ph 1 -Pd 707594 -Pds 6 -Pl 4.000000 -Pc HELLO 
r -t 4.593141913 -Hs 1 -Hd -2 -Ni 1 -Nx 220.36 -Ny 180.09 -Nz 0.00 -Ne -1.000000 -Nl MAC -Nw --- -Ma 0 -Md ffffffff -Ms 3 -Mt 800 -Is 707594.255 -Id -1.255 -It AODV -Il 44 -If 0 -Ii 0 -Iv 1 -P aodv -Pt 0x1 -Ph 1 -Pd 707594 -Pds 6 -Pl 4.000000 -Pc HELLO 
r -t 4.593166913 -Hs 1 -Hd -2 -Ni 1 -Nx 220.36 -Ny 180.09 -Nz 0.00 -Ne -1.000000 -Nl RTR -Nw --- -Ma 0 -Md ffffffff -Ms 3 -Mt 800 -Is 707594.255 -Id -1.255 -It AODV -Il 44 -If 0 -Ii 0 -Iv 1 -P aodv -Pt 0x1 -Ph 1 -Pd 707594 -Pds 6 -Pl 4.000000 -Pc HELLO 
s -t 4.593671188 -Hs 3 -Hd -2 -Ni 3 -Nx 345.66 -Ny 357.87 -Nz 0.00 -Ne -1.000000 -Nl MAC -Nw --- -Ma 0 -Md ffffffff -Ms 3 -Mt 800 -Is 963165.255 -Id -1.255 -It AODV -Il 102 -If 0 -Ii 0 -Iv 1 -P aodv -Pt 0x1 -Ph 1 -Pd 963165 -Pds 6 -Pl 4.000000 -Pc HELLO 
r -t 4.594487913 -Hs 1 -Hd -2 -Ni 1 -Nx 220.36 -Ny 180.09 -Nz 0.00 -Ne -1.000000 -Nl MAC -Nw --- -Ma 0 -Md ffffffff -Ms 3 -Mt 800 -Is 963165.255 -Id -1.255 -It AODV -Il 44 -If 0 -Ii 0 -Iv 1 -P aodv -Pt 0x1 -Ph 1 -Pd 963165 -Pds 6 -Pl 4.000000 -Pc HELLO 
r -t 4.594512913 -Hs 1 -Hd -2 -Ni 1 -Nx 220.36 -Ny 180.09 -Nz 0.00 -Ne -1.000000 -Nl RTR -Nw --- -Ma 0 -Md ffffffff -Ms 3 -Mt 800 -Is 963165.255 -Id -1.255 -It AODV -Il 44 -If 0 -Ii 0 -Iv 1 -P aodv -Pt 0x1 -Ph 1 -Pd 963165 -Pds 6 -Pl 4.000000 -Pc HELLO 
s -t 4.666264462 -Hs 1 -Hd -2 -Ni 1 -Nx 220.35 -Ny 180.10 -Nz 0.00 -Ne -1.000000 -Nl AGT -Nw --- -Ma 0 -Md 0 -Ms 0 -Mt 0 -Is 1.0 -Id 2.0 -It cbr -Il 512 -If 0 -Ii 5 -Iv 32 -Pn cbr -Pi 5 -Pf 0 -Po 1 
r -t 4.666264462 -Hs 1 -Hd -2 -Ni 1 -Nx 220.35 -Ny 180.10 -Nz 0.00 -Ne -1.000000 -Nl RTR -Nw --- -Ma 0 -Md 0 -Ms 0 -Mt 0 -Is 1.0 -Id 2.0 -It cbr -Il 512 -If 0 -Ii 5 -Iv 32 -Pn cbr -Pi 5 -Pf 0 -Po 1 
f -t 5.205897737 -Hs 1 -Hd -2 -Ni 1 -Nx 220.33 -Ny 180.14 -Nz 0.00 -Ne -1.000000 -Nl RTR -Nw --- -Ma 0 -Md 0 -Ms 0 -Mt 0 -Is 80308.255 -Id -1.255 -It AODV -Il 44 -If 0 -Ii 0 -Iv 1 -P aodv -Pt 0x1 -Ph 1 -Pd 80308 -Pds 10 -Pl 4.000000 -Pc HELLO 
f -t 5.205897737 -Hs 1 -Hd -2 -Ni 1 -Nx 220.33 -Ny 180.14 -Nz 0.00 -Ne -1.000000 -Nl RTR -Nw --- -Ma 0 -Md 0 -Ms 0 -Mt 0 -Is 32886.255 -Id -1.255 -It AODV -Il 44 -If 0 -Ii 0 -Iv 1 -P aodv -Pt 0x1 -Ph 1 -Pd 32886 -Pds 10 -Pl 4.000000 -Pc HELLO 
s -t 5.206052737 -Hs 1 -Hd -2 -Ni 1 -Nx 220.33 -Ny 180.14 -Nz 0.00 -Ne -1.000000 -Nl MAC -Nw --- -Ma 0 -Md ffffffff -Ms 1 -Mt 800 -Is 80308.255 -Id -1.255 -It AODV -Il 102 -If 0 -Ii 0 -Iv 1 -P aodv -Pt 0x1 -Ph 1 -Pd 80308 -Pds 10 -Pl 4.000000 -Pc HELLO 
r -t 5.206869052 -Hs 2 -Hd -2 -Ni 2 -Nx 207.99 -Ny 86.53 -Nz 0.00 -Ne -1.000000 -Nl MAC -Nw --- -Ma 0 -Md ffffffff -Ms 1 -Mt 800 -Is 80308.255 -Id -1.255 -It AODV -Il 44 -If 0 -Ii 0 -Iv 1 -P aodv -Pt 0x1 -Ph 1 -Pd 80308 -Pds 10 -Pl 4.000000 -Pc HELLO 
r -t 5.206869447 -Hs 3 -Hd -2 -Ni 3 -Nx 347.80 -Ny 350.47 -Nz 0.00 -Ne -1.000000 -Nl MAC -Nw --- -Ma 0 -Md ffffffff -Ms 1 -Mt 800 -Is 80308.255 -Id -1.255 -It AODV -Il 44 -If 0 -Ii 0 -Iv 1 -P aodv -Pt 0x1 -Ph 1 -Pd 80308 -Pds 10 -Pl 4.000000 -Pc HELLO 
r -t 5.206894052 -Hs 2 -Hd -2 -Ni 2 -Nx 207.99 -Ny 86.53 -Nz 0.00 -Ne -1.000000 -Nl RTR -Nw --- -Ma 0 -Md ffffffff -Ms 1 -Mt 800 -Is 80308.255 -Id -1.255 -It AODV -Il 44 -If 0 -Ii 0 -Iv 1 -P aodv -Pt 0x1 -Ph 1 -Pd 80308 -Pds 10 -Pl 4.000000 -Pc HELLO 
r -t 5.206894447 -Hs 3 -Hd -2 -Ni 3 -Nx 347.80 -Ny 350.47 -Nz 0.00 -Ne -1.000000 -Nl RTR -Nw --- -Ma 0 -Md ffffffff -Ms 1 -Mt 800 -Is 80308.255 -Id -1.255 -It AODV -Il 44 -If 0 -Ii 0 -Iv 1 -P aodv -Pt 0x1 -Ph 1 -Pd 80308 -Pds 10 -Pl 4.000000 -Pc HELLO 
s -t 5.207218737 -Hs 1 -Hd -2 -Ni 1 -Nx 220.33 -Ny 180.14 -Nz 0.00 -Ne -1.000000 -Nl MAC -Nw --- -Ma 0 -Md ffffffff -Ms 1 -Mt 800 -Is 32886.255 -Id -1.255 -It AODV -Il 102 -If 0 -Ii 0 -Iv 1 -P aodv -Pt 0x1 -Ph 1 -Pd 32886 -Pds 10 -Pl 4.000000 -Pc HELLO 
r -t 5.208035052 -Hs 2 -Hd -2 -Ni 2 -Nx 207.99 -Ny 86.54 -Nz 0.00 -Ne -1.000000 -Nl MAC -Nw --- -Ma 0 -Md ffffffff -Ms 1 -Mt 800 -Is 32886.255 -Id -1.255 -It AODV -Il 44 -If 0 -Ii 0 -Iv 1 -P aodv -Pt 0x1 -Ph 1 -Pd 32886 -Pds 10 -Pl 4.000000 -Pc HELLO 
r -t 5.208035447 -Hs 3 -Hd -2 -Ni 3 -Nx 347.80 -Ny 350.46 -Nz 0.00 -Ne -1.000000 -Nl MAC -Nw --- -Ma 0 -Md ffffffff -Ms 1 -Mt 800 -Is 32886.255 -Id -1.255 -It AODV -Il 44 -If 0 -Ii 0 -Iv 1 -P aodv -Pt 0x1 -Ph 1 -Pd 32886 -Pds 10 -Pl 4.000000 -Pc HELLO 
r -t 5.208060052 -Hs 2 -Hd -2 -Ni 2 -Nx 207.99 -Ny 86.54 -Nz 0.00 -Ne -1.000000 -Nl RTR -Nw --- -Ma 0 -Md ffffffff -Ms 1 -Mt 800 -Is 32886.255 -Id -1.255 -It AODV -Il 44 -If 0 -Ii 0 -Iv 1 -P aodv -Pt 0x1 -Ph 1 -Pd 32886 -Pds 10 -Pl 4.000000 -Pc HELLO 
r -t 5.208060447 -Hs 3 -Hd -2 -Ni 3 -Nx 347.80 -Ny 350.46 -Nz 0.00 -Ne -1.000000 -Nl RTR -Nw --- -Ma 0 -Md ffffffff -Ms 1 -Mt 800 -Is 32886.255 -Id -1.255 -It AODV -Il 44 -If 0 -Ii 0 -Iv 1 -P aodv -Pt 0x1 -Ph 1 -Pd 32886 -Pds 10 -Pl 4.000000 -Pc HELLO 
s -t 5.354592299 -Hs 1 -Hd -2 -Ni 1 -Nx 220.32 -Ny 180.15 -Nz 0.00 -Ne -1.000000 -Nl AGT -Nw --- -Ma 0 -Md 0 -Ms 0 -Mt 0 -Is 1.0 -Id 2.0 -It cbr -Il 512 -If 0 -Ii 6 -Iv 32 -Pn cbr -Pi 6 -Pf 0 -Po 1 
r -t 5.354592299 -Hs 1 -Hd -2 -Ni 1 -Nx 220.32 -Ny 180.15 -Nz 0.00 -Ne -1.000000 -Nl RTR -Nw --- -Ma 0 -Md 0 -Ms 0 -Mt 0 -Is 1.0 -Id 2.0 -It cbr -Il 512 -If 0 -Ii 6 -Iv 32 -Pn cbr -Pi 6 -Pf 0 -Po 1 
f -t 5.676282135 -Hs 3 -Hd -2 -Ni 3 -Nx 349.43 -Ny 344.80 -Nz 0.00 -Ne -1.000000 -Nl RTR -Nw --- -Ma 0 -Md 0 -Ms 0 -Mt 0 -Is 707594.255 -Id -1.255 -It AODV -Il 44 -If 0 -Ii 0 -Iv 1 -P aodv -Pt 0x1 -Ph 1 -Pd 707594 -Pds 6 -Pl 4.000000 -Pc HELLO 
f -t 5.676282135 -Hs 3 -Hd -2 -Ni 3 -Nx 349.43 -Ny 344.80 -Nz 0.00 -Ne -1.000000 -Nl RTR -Nw --- -Ma 0 -Md 0 -Ms 0 -Mt 0 -Is 963165.255 -Id -1.255 -It AODV -Il 44 -If 0 -Ii 0 -Iv 1 -P aodv -Pt 0x1 -Ph 1 -Pd 963165 -Pds 6 -Pl 4.000000 -Pc HELLO 
s -t 5.676377135 -Hs 3 -Hd -2 -Ni 3 -Nx 349.43 -Ny 344.80 -Nz 0.00 -Ne -1.000000 -Nl MAC -Nw --- -Ma 0 -Md ffffffff -Ms 3 -Mt 800 -Is 707594.255 -Id -1.255 -It AODV -Il 102 -If 0 -Ii 0 -Iv 1 -P aodv -Pt 0x1 -Ph 1 -Pd 707594 -Pds 6 -Pl 4.000000 -Pc HELLO 
r -t 5.677193832 -Hs 1 -Hd -2 -Ni 1 -Nx 220.30 -Ny 180.18 -Nz 0.00 -Ne -1.000000 -Nl MAC -Nw --- -Ma 0 -Md ffffffff -Ms 3 -Mt 800 -Is 707594.255 -Id -1.255 -It AODV -Il 44 -If 0 -Ii 0 -Iv 1 -P aodv -Pt 0x1 -Ph 1 -Pd 707594 -Pds 6 -Pl 4.000000 -Pc HELLO 
r -t 5.677218832 -Hs 1 -Hd -2 -Ni 1 -Nx 220.30 -Ny 180.18 -Nz 0.00 -Ne -1.000000 -Nl RTR -Nw --- -Ma 0 -Md ffffffff -Ms 3 -Mt 800 -Is 707594.255 -Id -1.255 -It AODV -Il 44 -If 0 -Ii 0 -Iv 1 -P aodv -Pt 0x1 -Ph 1 -Pd 707594 -Pds 6 -Pl 4.000000 -Pc HELLO 
s -t 5.677723135 -Hs 3 -Hd -2 -Ni 3 -Nx 349.44 -Ny 344.79 -Nz 0.00 -Ne -1.000000 -Nl MAC -Nw --- -Ma 0 -Md ffffffff -Ms 3 -Mt 800 -Is 963165.255 -Id -1.255 -It AODV -Il 102 -If 0 -Ii 0 -Iv 1 -P aodv -Pt 0x1 -Ph 1 -Pd 963165 -Pds 6 -Pl 4.000000 -Pc HELLO 
r -t 5.678539832 -Hs 1 -Hd -2 -Ni 1 -Nx 220.30 -Ny 180.18 -Nz 0.00 -Ne -1.000000 -Nl MAC -Nw --- -Ma 0 -Md ffffffff -Ms 3 -Mt 800 -Is 963165.255 -Id -1.255 -It AODV -Il 44 -If 0 -Ii 0 -Iv 1 -P aodv -Pt 0x1 -Ph 1 -Pd 963165 -Pds 6 -Pl 4.000000 -Pc HELLO 
r -t 5.678564832 -Hs 1 -Hd -2 -Ni 1 -Nx 220.30 -Ny 180.18 -Nz 0.00 -Ne -1.000000 -Nl RTR -Nw --- -Ma 0 -Md ffffffff -Ms 3 -Mt 800 -Is 963165.255 -Id -1.255 -It AODV -Il 44 -If 0 -Ii 0 -Iv 1 -P aodv -Pt 0x1 -Ph 1 -Pd 963165 -Pds 6 -Pl 4.000000 -Pc HELLO 
s -t 5.997085850 -Hs 1 -Hd -2 -Ni 1 -Nx 220.29 -Ny 180.20 -Nz 0.00 -Ne -1.000000 -Nl AGT -Nw --- -Ma 0 -Md 0 -Ms 0 -Mt 0 -Is 1.0 -Id 2.0 -It cbr -Il 512 -If 0 -Ii 7 -Iv 32 -Pn cbr -Pi 7 -Pf 0 -Po 1 
r -t 5.997085850 -Hs 1 -Hd -2 -Ni 1 -Nx 220.29 -Ny 180.20 -Nz 0.00 -Ne -1.000000 -Nl RTR -Nw --- -Ma 0 -Md 0 -Ms 0 -Mt 0 -Is 1.0 -Id 2.0 -It cbr -Il 512 -If 0 -Ii 7 -Iv 32 -Pn cbr -Pi 7 -Pf 0 -Po 1 
f -t 6.168741377 -Hs 1 -Hd -2 -Ni 1 -Nx 220.28 -Ny 180.21 -Nz 0.00 -Ne -1.000000 -Nl RTR -Nw --- -Ma 0 -Md 0 -Ms 0 -Mt 0 -Is 80308.255 -Id -1.255 -It AODV -Il 44 -If 0 -Ii 0 -Iv 1 -P aodv -Pt 0x1 -Ph 1 -Pd 80308 -Pds 10 -Pl 4.000000 -Pc HELLO 
f -t 6.168741377 -Hs 1 -Hd -2 -Ni 1 -Nx 220.28 -Ny 180.21 -Nz 0.00 -Ne -1.000000 -Nl RTR -Nw --- -Ma 0 -Md 0 -Ms 0 -Mt 0 -Is 32886.255 -Id -1.255 -It AODV -Il 44 -If 0 -Ii 0 -Iv 1 -P aodv -Pt 0x1 -Ph 1 -Pd 32886 -Pds 10 -Pl 4.000000 -Pc HELLO 
s -t 6.169276377 -Hs 1 -Hd -2 -Ni 1 -Nx 220.28 -Ny 180.21 -Nz 0.00 -Ne -1.000000 -Nl MAC -Nw --- -Ma 0 -Md ffffffff -Ms 1 -Mt 800 -Is 80308.255 -Id -1.255 -It AODV -Il 102 -If 0 -Ii 0 -Iv 1 -P aodv -Pt 0x1 -Ph 1 -Pd 80308 -Pds 10 -Pl 4.000000 -Pc HELLO 
r -t 6.170092667 -Hs 2 -Hd -2 -Ni 2 -Nx 210.58 -Ny 93.62 -Nz 0.00 -Ne -1.000000 -Nl MAC -Nw --- -Ma 0 -Md ffffffff -Ms 1 -Mt 800 -Is 80308.255 -Id -1.255 -It AODV -Il 44 -If 0 -Ii 0 -Iv 1 -P aodv -Pt 0x1 -Ph 1 -Pd 80308 -Pds 10 -Pl 4.000000 -Pc HELLO 
r -t 6.170093062 -Hs 3 -Hd -2 -Ni 3 -Nx 351.15 -Ny 338.84 -Nz 0.00 -Ne -1.000000 -Nl MAC -Nw --- -Ma 0 -Md ffffffff -Ms 1 -Mt 800 -Is 80308.255 -Id -1.255 -It AODV -Il 44 -If 0 -Ii 0 -Iv 1 -P aodv -Pt 0x1 -Ph 1 -Pd 80308 -Pds 10 -Pl 4.000000 -Pc HELLO 
r -t 6.170117667 -Hs 2 -Hd -2 -Ni 2 -Nx 210.58 -Ny 93.62 -Nz 0.00 -Ne -1.000000 -Nl RTR -Nw --- -Ma 0 -Md ffffffff -Ms 1 -Mt 800 -Is 80308.255 -Id -1.255 -It AODV -Il 44 -If 0 -Ii 0 -Iv 1 -P aodv -Pt 0x1 -Ph 1 -Pd 80308 -Pds 10 -Pl 4.000000 -Pc HELLO 
r -t 6.170118062 -Hs 3 -Hd -2 -Ni 3 -Nx 351.15 -Ny 338.84 -Nz 0.00 -Ne -1.000000 -Nl RTR -Nw --- -Ma 0 -Md ffffffff -Ms 1 -Mt 800 -Is 80308.255 -Id -1.255 -It AODV -Il 44 -If 0 -Ii 0 -Iv 1 -P aodv -Pt 0x1 -Ph 1 -Pd 80308 -Pds 10 -Pl 4.000000 -Pc HELLO 
s -t 6.170262377 -Hs 1 -Hd -2 -Ni 1 -Nx 220.28 -Ny 180.21 -Nz 0.00 -Ne -1.000000 -Nl MAC -Nw --- -Ma 0 -Md ffffffff -Ms 1 -Mt 800 -Is 32886.255 -Id -1.255 -It AODV -Il 102 -If 0 -Ii 0 -Iv 1 -P aodv -Pt 0x1 -Ph 1 -Pd 32886 -Pds 10 -Pl 4.000000 -Pc HELLO 
r -t 6.171078667 -Hs 2 -Hd -2 -Ni 2 -Nx 210.58 -Ny 93.63 -Nz 0.00 -Ne -1.000000 -Nl MAC -Nw --- -Ma 0 -Md ffffffff -Ms 1 -Mt 800 -Is 32886.255 -Id -1.255 -It AODV -Il 44 -If 0 -Ii 0 -Iv 1 -P aodv -Pt 0x1 -Ph 1 -Pd 32886 -Pds 10 -Pl 4.000000 -Pc HELLO 
r -t 6.171079062 -Hs 3 -Hd -2 -Ni 3 -Nx 351.16 -Ny 338.83 -Nz 0.00 -Ne -1.000000 -Nl MAC -Nw --- -Ma 0 -Md ffffffff -Ms 1 -Mt 800 -Is 32886.255 -Id -1.255 -It AODV -Il 44 -If 0 -Ii 0 -Iv 1 -P aodv -Pt 0x1 -Ph 1 -Pd 32886 -Pds 10 -Pl 4.000000 -Pc HELLO 
r -t 6.171103667 -Hs 2 -Hd -2 -Ni 2 -Nx 210.58 -Ny 93.63 -Nz 0.00 -Ne -1.000000 -Nl RTR -Nw --- -Ma 0 -Md ffffffff -Ms 1 -Mt 800 -Is 32886.255 -Id -1.255 -It AODV -Il 44 -If 0 -Ii 0 -Iv 1 -P aodv -Pt 0x1 -Ph 1 -Pd 32886 -Pds 10 -Pl 4.000000 -Pc HELLO 
r -t 6.171104062 -Hs 3 -Hd -2 -Ni 3 -Nx 351.16 -Ny 338.83 -Nz 0.00 -Ne -1.000000 -Nl RTR -Nw --- -Ma 0 -Md ffffffff -Ms 1 -Mt 800 -Is 32886.255 -Id -1.255 -It AODV -Il 44 -If 0 -Ii 0 -Iv 1 -P aodv -Pt 0x1 -Ph 1 -Pd 32886 -Pds 10 -Pl 4.000000 -Pc HELLO 
s -t 6.292764308 -Hs 1 -Hd -2 -Ni 1 -Nx 220.27 -Ny 180.22 -Nz 0.00 -Ne -1.000000 -Nl AGT -Nw --- -Ma 0 -Md 0 -Ms 0 -Mt 0 -Is 1.0 -Id 2.0 -It cbr -Il 512 -If 0 -Ii 8 -Iv 32 -Pn cbr -Pi 8 -Pf 0 -Po 1 
r -t 6.292764308 -Hs 1 -Hd -2 -Ni 1 -Nx 220.27 -Ny 180.22 -Nz 0.00 -Ne -1.000000 -Nl RTR -Nw --- -Ma 0 -Md 0 -Ms 0 -Mt 0 -Is 1.0 -Id 2.0 -It cbr -Il 512 -If 0 -Ii 8 -Iv 32 -Pn cbr -Pi 8 -Pf 0 -Po 1 
f -t 6.812630003 -Hs 3 -Hd -2 -Ni 3 -Nx 353.39 -Ny 331.09 -Nz 0.00 -Ne -1.000000 -Nl RTR -Nw --- -Ma 0 -Md 0 -Ms 0 -Mt 0 -Is 707594.255 -Id -1.255 -It AODV -Il 44 -If 0 -Ii 0 -Iv 1 -P aodv -Pt 0x1 -Ph 1 -Pd 707594 -Pds 6 -Pl 4.000000 -Pc HELLO 
f -t 6.812630003 -Hs 3 -Hd -2 -Ni 3 -Nx 353.39 -Ny 331.09 -Nz 0.00 -Ne -1.000000 -Nl RTR -Nw --- -Ma 0 -Md 0 -Ms 0 -Mt 0 -Is 963165.255 -Id -1.255 -It AODV -Il 44 -If 0 -Ii 0 -Iv 1 -P aodv -Pt 0x1 -Ph 1 -Pd 963165 -Pds 6 -Pl 4.000000 -Pc HELLO 
s -t 6.812965003 -Hs 3 -Hd -2 -Ni 3 -Nx 353.39 -Ny 331.08 -Nz 0.00 -Ne -1.000000 -Nl MAC -Nw --- -Ma 0 -Md ffffffff -Ms 3 -Mt 800 -Is 707594.255 -Id -1.255 -It AODV -Il 102 -If 0 -Ii 0 -Iv 1 -P aodv -Pt 0x1 -Ph 1 -Pd 707594 -Pds 6 -Pl 4.000000 -Pc HELLO 
r -t 6.813781674 -Hs 1 -Hd -2 -Ni 1 -Nx 220.24 -Ny 180.26 -Nz 0.00 -Ne -1.000000 -Nl MAC -Nw --- -Ma 0 -Md ffffffff -Ms 3 -Mt 800 -Is 707594.255 -Id -1.255 -It AODV -Il 44 -If 0 -Ii 0 -Iv 1 -P aodv -Pt 0x1 -Ph 1 -Pd 707594 -Pds 6 -Pl 4.000000 -Pc HELLO 
r -t 6.813781821 -Hs 0 -Hd -2 -Ni 0 -Nx 155.35 -Ny 475.84 -Nz 0.00 -Ne -1.000000 -Nl MAC -Nw --- -Ma 0 -Md ffffffff -Ms 3 -Mt 800 -Is 707594.255 -Id -1.255 -It AODV -Il 44 -If 0 -Ii 0 -Iv 1 -P aodv -Pt 0x1 -Ph 1 -Pd 707594 -Pds 6 -Pl 4.000000 -Pc HELLO 
r -t 6.813806674 -Hs 1 -Hd -2 -Ni 1 -Nx 220.24 -Ny 180.26 -Nz 0.00 -Ne -1.000000 -Nl RTR -Nw --- -Ma 0 -Md ffffffff -Ms 3 -Mt 800 -Is 707594.255 -Id -1.255 -It AODV -Il 44 -If 0 -Ii 0 -Iv 1 -P aodv -Pt 0x1 -Ph 1 -Pd 707594 -Pds 6 -Pl 4.000000 -Pc HELLO 
r -t 6.813806821 -Hs 0 -Hd -2 -Ni 0 -Nx 155.35 -Ny 475.84 -Nz 0.00 -Ne -1.000000 -Nl RTR -Nw --- -Ma 0 -Md ffffffff -Ms 3 -Mt 800 -Is 707594.255 -Id -1.255 -It AODV -Il 44 -If 0 -Ii 0 -Iv 1 -P aodv -Pt 0x1 -Ph 1 -Pd 707594 -Pds 6 -Pl 4.000000 -Pc HELLO 
s -t 6.814031003 -Hs 3 -Hd -2 -Ni 3 -Nx 353.40 -Ny 331.07 -Nz 0.00 -Ne -1.000000 -Nl MAC -Nw --- -Ma 0 -Md ffffffff -Ms 3 -Mt 800 -Is 963165.255 -Id -1.255 -It AODV -Il 102 -If 0 -Ii 0 -Iv 1 -P aodv -Pt 0x1 -Ph 1 -Pd 963165 -Pds 6 -Pl 4.000000 -Pc HELLO 
r -t 6.814847674 -Hs 1 -Hd -2 -Ni 1 -Nx 220.24 -Ny 180.26 -Nz 0.00 -Ne -1.000000 -Nl MAC -Nw --- -Ma 0 -Md ffffffff -Ms 3 -Mt 800 -Is 963165.255 -Id -1.255 -It AODV -Il 44 -If 0 -Ii 0 -Iv 1 -P aodv -Pt 0x1 -Ph 1 -Pd 963165 -Pds 6 -Pl 4.000000 -Pc HELLO 
r -t 6.814847821 -Hs 0 -Hd -2 -Ni 0 -Nx 155.37 -Ny 475.84 -Nz 0.00 -Ne -1.000000 -Nl MAC -Nw --- -Ma 0 -Md ffffffff -Ms 3 -Mt 800 -Is 963165.255 -Id -1.255 -It AODV -Il 44 -If 0 -Ii 0 -Iv 1 -P aodv -Pt 0x1 -Ph 1 -Pd 963165 -Pds 6 -Pl 4.000000 -Pc HELLO 
r -t 6.814872674 -Hs 1 -Hd -2 -Ni 1 -Nx 220.24 -Ny 180.26 -Nz 0.00 -Ne -1.000000 -Nl RTR -Nw --- -Ma 0 -Md ffffffff -Ms 3 -Mt 800 -Is 963165.255 -Id -1.255 -It AODV -Il 44 -If 0 -Ii 0 -Iv 1 -P aodv -Pt 0x1 -Ph 1 -Pd 963165 -Pds 6 -Pl 4.000000 -Pc HELLO 
r -t 6.814872821 -Hs 0 -Hd -2 -Ni 0 -Nx 155.37 -Ny 475.84 -Nz 0.00 -Ne -1.000000 -Nl RTR -Nw --- -Ma 0 -Md ffffffff -Ms 3 -Mt 800 -Is 963165.255 -Id -1.255 -It AODV -Il 44 -If 0 -Ii 0 -Iv 1 -P aodv -Pt 0x1 -Ph 1 -Pd 963165 -Pds 6 -Pl 4.000000 -Pc HELLO 