M 0.00000 0 (170.56, 342.21, 0.00), (79.30, 1.91), 9.96
M 0.00000 1 (305.34, 389.12, 0.00), (202.21, 57.26), 9.56
M 0.00000 2 (167.12, 316.26, 0.00), (266.34, 166.84), 8.46
M 0.00000 3 (407.34, 163.35, 0.00), (401.56, 455.62), 5.78
M 0.00000 4 (5.58, 227.42, 0.00), (96.12, 132.77), 9.72
M 0.00000 5 (45.51, 134.35, 0.00), (328.14, 145.92), 3.97
M 0.00000 6 (11.88, 196.01, 0.00), (482.32, 49.68), 1.79
M 0.00000 7 (385.24, 100.51, 0.00), (151.38, 460.51), 4.45
M 0.00000 8 (255.40, 202.53, 0.00), (98.16, 304.50), 5.74
M 0.00000 9 (38.40, 478.03, 0.00), (5.53, 282.53), 7.72
M 0.00000 10 (146.24, 152.62, 0.00), (475.46, 442.89), 8.25
M 0.00000 11 (238.46, 349.21, 0.00), (244.89, 88.48), 6.17
s -t 2.556838879 -Hs 1 -Hd -2 -Ni 1 -Nx 298.09 -Ny 365.78 -Nz 0.00 -Ne -1.000000 -Nl AGT -Nw --- -Ma 0 -Md 0 -Ms 0 -Mt 0 -Is 1.0 -Id 2.0 -It cbr -Il 512 -If 0 -Ii 0 -Iv 32 -Pn cbr -Pi 0 -Pf 0 -Po 1 
r -t 2.574727441 -Hs 2 -Hd 2 -Ni 2 -Nx 179.16 -Ny 298.12 -Nz 0.00 -Ne -1.000000 -Nl AGT -Nw --- -Ma 13a -Md 2 -Ms 1 -Mt 800 -Is 1.0 -Id 2.0 -It cbr -Il 532 -If 0 -Ii 0 -Iv 30 -Pn cbr -Pi 0 -Pf 1 -Po 1 
M 13.47079 4 (96.12, 132.77, 0.00), (276.81, 433.39), 6.86
M 21.20704 2 (266.34, 166.84, 0.00), (127.78, 305.88), 9.28
M 25.67875 9 (5.53, 282.53, 0.00), (438.71, 364.39), 3.81
s -t 29.546173154 -Hs 7 -Hd -2 -Ni 7 -Nx 313.61 -Ny 210.78 -Nz 0.00 -Ne -1.000000 -Nl AGT -Nw --- -Ma 0 -Md 0 -Ms 0 -Mt 0 -Is 7.1 -Id 8.0 -It cbr -Il 512 -If 0 -Ii 1 -Iv 32 -Pn cbr -Pi 0 -Pf 0 -Po 1 
r -t 29.564822093 -Hs 8 -Hd 8 -Ni 8 -Nx 112.91 -Ny 294.93 -Nz 0.00 -Ne -1.000000 -Nl AGT -Nw --- -Ma 13a -Md 8 -Ms 7 -Mt 800 -Is 7.1 -Id 8.0 -It cbr -Il 532 -If 0 -Ii 1 -Iv 30 -Pn cbr -Pi 0 -Pf 1 -Po 1 
M 32.62644 8 (98.16, 304.50, 0.00), (468.78, 421.63), 9.05
M 35.37135 0 (79.30, 1.91, 0.00), (285.83, 145.45), 5.25
M 36.36853 1 (202.21, 57.26, 0.00), (121.67, 44.51), 4.45
M 42.25665 11 (244.89, 88.48, 0.00), (413.27, 335.60), 3.59
M 42.36074 2 (127.78, 305.88, 0.00), (273.53, 181.86), 2.23
M 50.59140 3 (401.56, 455.62, 0.00), (50.17, 429.68), 5.82
M 53.17533 10 (475.46, 442.89, 0.00), (438.84, 357.17), 1.02
M 54.69754 1 (121.67, 44.51, 0.00), (86.31, 384.77), 2.13
s -t 55.634230383 -Hs 6 -Hd -2 -Ni 6 -Nx 106.97 -Ny 166.44 -Nz 0.00 -Ne -1.000000 -Nl AGT -Nw --- -Ma 0 -Md 0 -Ms 0 -Mt 0 -Is 6.1 -Id 7.0 -It cbr -Il 512 -If 0 -Ii 2 -Iv 32 -Pn cbr -Pi 0 -Pf 0 -Po 1 
r -t 55.656639678 -Hs 7 -Hd 7 -Ni 7 -Nx 250.30 -Ny 308.23 -Nz 0.00 -Ne -1.000000 -Nl AGT -Nw --- -Ma 13a -Md 7 -Ms 6 -Mt 800 -Is 6.1 -Id 7.0 -It cbr -Il 532 -If 0 -Ii 2 -Iv 30 -Pn cbr -Pi 0 -Pf 1 -Po 1 
s -t 56.333118918 -Hs 4 -Hd -2 -Ni 4 -Nx 247.53 -Ny 384.69 -Nz 0.00 -Ne -1.000000 -Nl AGT -Nw --- -Ma 0 -Md 0 -Ms 0 -Mt 0 -Is 4.0 -Id 5.0 -It cbr -Il 512 -If 0 -Ii 3 -Iv 32 -Pn cbr -Pi 0 -Pf 0 -Po 1 
r -t 56.345712290 -Hs 5 -Hd 5 -Ni 5 -Nx 269.03 -Ny 143.50 -Nz 0.00 -Ne -1.000000 -Nl AGT -Nw --- -Ma 13a -Md 5 -Ms 4 -Mt 800 -Is 4.0 -Id 5.0 -It cbr -Il 532 -If 0 -Ii 3 -Iv 30 -Pn cbr -Pi 0 -Pf 1 -Po 1 
M 64.61966 4 (276.81, 433.39, 0.00), (130.59, 345.24), 9.02
M 71.24535 5 (328.14, 145.92, 0.00), (284.60, 110.21), 4.23
M 75.57153 8 (468.78, 421.63, 0.00), (205.84, 359.85), 4.77
M 83.26262 0 (285.83, 145.45, 0.00), (482.29, 158.71), 5.93
M 83.54256 4 (130.59, 345.24, 0.00), (10.91, 184.15), 2.55
M 84.55723 5 (284.60, 110.21, 0.00), (269.44, 47.30), 0.04
M 96.45770 7 (151.38, 460.51, 0.00), (48.85, 350.26), 4.33
M 111.09311 3 (50.17, 429.68, 0.00), (205.42, 252.37), 4.40
M 116.48141 0 (482.29, 158.71, 0.00), (380.83, 128.96), 9.94
M 125.63786 11 (413.27, 335.60, 0.00), (251.40, 355.74), 1.82
M 127.12105 0 (380.83, 128.96, 0.00), (119.88, 387.40), 3.85
M 128.31123 2 (273.53, 181.86, 0.00), (71.52, 257.94), 7.54
M 131.19190 7 (48.85, 350.26, 0.00), (156.07, 52.79), 9.89
M 132.15531 8 (205.84, 359.85, 0.00), (54.88, 142.55), 4.95
M 141.26127 9 (438.71, 364.39, 0.00), (73.95, 371.80), 5.66
M 144.50246 10 (438.84, 357.17, 0.00), (28.77, 363.57), 2.62
s -t 146.965689290 -Hs 4 -Hd -2 -Ni 4 -Nx 34.18 -Ny 215.47 -Nz 0.00 -Ne -1.000000 -Nl AGT -Nw --- -Ma 0 -Md 0 -Ms 0 -Mt 0 -Is 4.1 -Id 6.0 -It cbr -Il 512 -If 0 -Ii 4 -Iv 32 -Pn cbr -Pi 0 -Pf 0 -Po 1 
r -t 146.981098256 -Hs 6 -Hd 6 -Ni 6 -Nx 263.09 -Ny 117.87 -Nz 0.00 -Ne -1.000000 -Nl AGT -Nw --- -Ma 13a -Md 6 -Ms 4 -Mt 800 -Is 4.1 -Id 6.0 -It cbr -Il 532 -If 0 -Ii 4 -Iv 30 -Pn cbr -Pi 0 -Pf 1 -Po 1 
