n -t * -s 0  -x 170.56459688521801 -y 342.21234689004899 -Z 0 -z 20  -v circle -c black
n -t * -s 1  -x 305.33956783139803 -y 389.11508965211402 -Z 0 -z 20  -v circle -c black
n -t * -s 2  -x 167.11773682862699 -y 316.26268378054698 -Z 0 -z 20  -v circle -c black
n -t * -s 3  -x 407.34407730111099 -y 163.34856603678799 -Z 0 -z 20  -v circle -c black
n -t * -s 4  -x 5.5799939810849999 -y 227.41514532881601 -Z 0 -z 20  -v circle -c black
n -t * -s 5  -x 45.512721866054001 -y 134.34760434187501 -Z 0 -z 20  -v circle -c black
n -t * -s 6  -x 11.884933913142 -y 196.011890603805 -Z 0 -z 20  -v circle -c black
n -t * -s 7  -x 385.23866087888399 -y 100.511976845211 -Z 0 -z 20  -v circle -c black
n -t * -s 8  -x 255.399420420425 -y 202.52762109175001 -Z 0 -z 20  -v circle -c black
n -t * -s 9  -x 38.398416593408001 -y 478.02737237180003 -Z 0 -z 20  -v circle -c black
n -t * -s 10  -x 146.23912666406 -y 152.615287397983 -Z 0 -z 20  -v circle -c black
n -t * -s 11  -x 238.455033534823 -y 349.20858932551602 -Z 0 -z 20  -v circle -c black
V -t * -v 1.0a5 -a 0
W -t * -x 500 -y 500
A -t * -n 1 -p 0 -o 0x7fffffff -c 30 -a 1
A -t * -h 1 -m 1073741823 -s 0
n -t 0.000000 -s 0 -x 170.564597 -y 342.212347 -U -2.580153 -V -9.620913 -T 35.371354
n -t 0.000000 -s 1 -x 305.339568 -y 389.115090 -U -2.835703 -V -9.124885 -T 36.368532
n -t 0.000000 -s 2 -x 167.117737 -y 316.262684 -U 4.678913 -V -7.046029 -T 21.207042
n -t 0.000000 -s 3 -x 407.344077 -y 163.348566 -U -0.114381 -V 5.777163 -T 50.591400
n -t 0.000000 -s 4 -x 5.579994 -y 227.415145 -U 6.720883 -V -7.026241 -T 13.470789
n -t 0.000000 -s 5 -x 45.512722 -y 134.347604 -U 3.966915 -V 0.162486 -T 71.245346
n -t 0.000000 -s 6 -x 11.884934 -y 196.011891 -U 1.709086 -V -0.531629 -T 275.256723
n -t 0.000000 -s 7 -x 385.238661 -y 100.511977 -U -2.424453 -V 3.732194 -T 96.457701
n -t 0.000000 -s 8 -x 255.399420 -y 202.527621 -U -4.819394 -V 3.125355 -T 32.626439
n -t 0.000000 -s 9 -x 38.398417 -y 478.027372 -U -1.280169 -V -7.613362 -T 25.678752
n -t 0.000000 -s 10 -x 146.239127 -y 152.615287 -U 6.191256 -V 5.458781 -T 53.175329
n -t 0.000000 -s 11 -x 238.455034 -y 349.208589 -U 0.152239 -V -6.170074 -T 42.256648
+ -t 2.556838879 -s 1 -d -1 -p cbr -e 512 -c 2 -a 0 -i 0 -k AGT 
- -t 2.556838879 -s 1 -d -1 -p cbr -e 512 -c 2 -a 0 -i 0 -k AGT
h -t 2.556838879 -s 1 -d -1 -p cbr -e 512 -c 2 -a 0 -i 0 -k AGT
r -t 2.574727441 -s 2 -d 2 -p cbr -e 532 -c 2 -a 0 -i 0 -k AGT
n -t 13.470789 -s 4 -x 96.115587 -y 132.766131 -U 3.532678 -V 5.877472 -T 51.148871
n -t 21.207042 -s 2 -x 266.343644 -y 166.837249 -U -6.550219 -V 6.572877 -T 21.153694
n -t 25.678752 -s 9 -x 5.525267 -y 282.525737 -U 3.747830 -V 0.708300 -T 115.582521
+ -t 29.546173154 -s 7 -d -1 -p cbr -e 512 -c 2 -a 0 -i 1 -k AGT 
- -t 29.546173154 -s 7 -d -1 -p cbr -e 512 -c 2 -a 0 -i 1 -k AGT
h -t 29.546173154 -s 7 -d -1 -p cbr -e 512 -c 2 -a 0 -i 1 -k AGT
r -t 29.564822093 -s 8 -d 8 -p cbr -e 532 -c 2 -a 0 -i 1 -k AGT
n -t 32.626439 -s 8 -x 98.159764 -y 304.496824 -U 8.630119 -V 2.727519 -T 42.945088
n -t 35.371354 -s 0 -x 79.301101 -y 1.907635 -U 4.312403 -V 2.997188 -T 47.891267
n -t 36.368532 -s 1 -x 202.209194 -y 57.256395 -U -4.393902 -V -0.695656 -T 18.329011
n -t 42.256648 -s 11 -x 244.888141 -y 88.481946 -U 2.019405 -V 2.963696 -T 83.381210
n -t 42.360736 -s 2 -x 127.782308 -y 305.877877 -U 1.695674 -V -1.442951 -T 85.950491
n -t 50.591400 -s 3 -x 401.557382 -y 455.623315 -U -5.807908 -V -0.428878 -T 60.501708
n -t 53.175329 -s 10 -x 475.461201 -y 442.887779 -U -0.400970 -V -0.938547 -T 91.327135
n -t 54.697544 -s 1 -x 121.673310 -y 44.505708 -U -0.220174 -V 2.118263 -T 160.631506
+ -t 55.634230383 -s 6 -d -1 -p cbr -e 512 -c 2 -a 0 -i 2 -k AGT 
- -t 55.634230383 -s 6 -d -1 -p cbr -e 512 -c 2 -a 0 -i 2 -k AGT
h -t 55.634230383 -s 6 -d -1 -p cbr -e 512 -c 2 -a 0 -i 2 -k AGT
r -t 55.656639678 -s 7 -d 7 -p cbr -e 532 -c 2 -a 0 -i 2 -k AGT
+ -t 56.333118918 -s 4 -d -1 -p cbr -e 512 -c 2 -a 0 -i 3 -k AGT 
- -t 56.333118918 -s 4 -d -1 -p cbr -e 512 -c 2 -a 0 -i 3 -k AGT
h -t 56.333118918 -s 4 -d -1 -p cbr -e 512 -c 2 -a 0 -i 3 -k AGT
r -t 56.345712290 -s 5 -d 5 -p cbr -e 532 -c 2 -a 0 -i 3 -k AGT
n -t 64.619660 -s 4 -x 276.808073 -y 433.392194 -U -7.726926 -V -4.658521 -T 18.922901
n -t 71.245346 -s 5 -x 328.136943 -y 145.923947 -U -3.270759 -V -2.682836 -T 13.311884
n -t 75.571527 -s 8 -x 468.780983 -y 421.630347 -U -4.646892 -V -1.091839 -T 56.583780
n -t 83.262621 -s 0 -x 285.827564 -y 145.446764 -U 5.914204 -V 0.399138 -T 33.218794
n -t 83.542561 -s 4 -x 130.592212 -y 345.239454 -U -1.520164 -V -2.046161 -T 78.728125
n -t 84.557229 -s 5 -x 284.596982 -y 110.210348 -U -0.009508 -V -0.039469 -T 1593.825463
n -t 96.457701 -s 7 -x 151.381494 -y 460.510843 -U -2.951959 -V -3.173988 -T 34.734195
n -t 111.093108 -s 3 -x 50.169021 -y 429.675479 -U 2.900270 -V -3.312145 -T 53.531114
n -t 116.481415 -s 0 -x 482.290279 -y 158.705649 -U -9.536487 -V -2.795601 -T 10.639632
n -t 125.637857 -s 11 -x 413.268604 -y 335.598541 -U -1.801301 -V 0.224187 -T 89.863603
n -t 127.121047 -s 0 -x 380.825568 -y 128.961486 -U -2.735859 -V 2.709551 -T 95.380070
n -t 128.311227 -s 2 -x 273.526305 -y 181.855554 -U -7.051575 -V 2.655971 -T 28.646865
n -t 131.191896 -s 7 -x 48.847574 -y 350.264933 -U 3.352102 -V -9.299785 -T 31.987307
n -t 132.155307 -s 8 -x 205.842262 -y 359.849973 -U -2.825590 -V -4.067191 -T 53.428261
n -t 141.261273 -s 9 -x 438.708943 -y 364.392800 -U -5.655697 -V 0.114840 -T 64.494499
n -t 144.502464 -s 10 -x 438.841716 -y 357.172960 -U -2.621805 -V 0.040894 -T 156.408971
+ -t 146.965689290 -s 4 -d -1 -p cbr -e 512 -c 2 -a 0 -i 4 -k AGT 
- -t 146.965689290 -s 4 -d -1 -p cbr -e 512 -c 2 -a 0 -i 4 -k AGT
h -t 146.965689290 -s 4 -d -1 -p cbr -e 512 -c 2 -a 0 -i 4 -k AGT
r -t 146.981098256 -s 6 -d 6 -p cbr -e 532 -c 2 -a 0 -i 4 -k AGT
W -t 150.0
